 Entering Gaussian System, Link 0=g03
 Input=reaktant2.com
 Output=reaktant2.log
 Initial command:
 /software/ncbr/softrepo/secret/gaussian/03.E1/x86_64/node/l1.exe /scratch/xdanek7/QM/02_QM_optimalizace/reaktant2/Gau-11874.inp -scrdir=/scratch/xdanek7/QM/02_QM_optimalizace/reaktant2/
 Entering Link 1 = /software/ncbr/softrepo/secret/gaussian/03.E1/x86_64/node/l1.exe PID=     11876.
  
 Copyright (c) 1988,1990,1992,1993,1995,1998,2003,2004,2007, Gaussian, Inc.
                  All Rights Reserved.
  
 This is the Gaussian(R) 03 program.  It is based on the
 the Gaussian(R) 98 system (copyright 1998, Gaussian, Inc.),
 the Gaussian(R) 94 system (copyright 1995, Gaussian, Inc.),
 the Gaussian 92(TM) system (copyright 1992, Gaussian, Inc.),
 the Gaussian 90(TM) system (copyright 1990, Gaussian, Inc.),
 the Gaussian 88(TM) system (copyright 1988, Gaussian, Inc.),
 the Gaussian 86(TM) system (copyright 1986, Carnegie Mellon
 University), and the Gaussian 82(TM) system (copyright 1983,
 Carnegie Mellon University). Gaussian is a federally registered
 trademark of Gaussian, Inc.
  
 This software contains proprietary and confidential information,
 including trade secrets, belonging to Gaussian, Inc.
  
 This software is provided under written license and may be
 used, copied, transmitted, or stored only in accord with that
 written license.
  
 The following legend is applicable only to US Government
 contracts under FAR:
  
                    RESTRICTED RIGHTS LEGEND
  
 Use, reproduction and disclosure by the US Government is
 subject to restrictions as set forth in subparagraphs (a)
 and (c) of the Commercial Computer Software - Restricted
 Rights clause in FAR 52.227-19.
  
 Gaussian, Inc.
 340 Quinnipiac St., Bldg. 40, Wallingford CT 06492
  
  
 ---------------------------------------------------------------
 Warning -- This program may not be used in any manner that
 competes with the business of Gaussian, Inc. or will provide
 assistance to any competitor of Gaussian, Inc.  The licensee
 of this program is prohibited from giving any competitor of
 Gaussian, Inc. access to this program.  By using this program,
 the user acknowledges that Gaussian, Inc. is engaged in the
 business of creating and licensing software in the field of
 computational chemistry and represents and warrants to the
 licensee that it is not a competitor of Gaussian, Inc. and that
 it will not use this program in any manner prohibited above.
 ---------------------------------------------------------------
  

 Cite this work as:
 Gaussian 03, Revision E.01,
 M. J. Frisch, G. W. Trucks, H. B. Schlegel, G. E. Scuseria, 
 M. A. Robb, J. R. Cheeseman, J. A. Montgomery, Jr., T. Vreven, 
 K. N. Kudin, J. C. Burant, J. M. Millam, S. S. Iyengar, J. Tomasi, 
 V. Barone, B. Mennucci, M. Cossi, G. Scalmani, N. Rega, 
 G. A. Petersson, H. Nakatsuji, M. Hada, M. Ehara, K. Toyota, 
 R. Fukuda, J. Hasegawa, M. Ishida, T. Nakajima, Y. Honda, O. Kitao, 
 H. Nakai, M. Klene, X. Li, J. E. Knox, H. P. Hratchian, J. B. Cross, 
 V. Bakken, C. Adamo, J. Jaramillo, R. Gomperts, R. E. Stratmann, 
 O. Yazyev, A. J. Austin, R. Cammi, C. Pomelli, J. W. Ochterski, 
 P. Y. Ayala, K. Morokuma, G. A. Voth, P. Salvador, J. J. Dannenberg, 
 V. G. Zakrzewski, S. Dapprich, A. D. Daniels, M. C. Strain, 
 O. Farkas, D. K. Malick, A. D. Rabuck, K. Raghavachari, 
 J. B. Foresman, J. V. Ortiz, Q. Cui, A. G. Baboul, S. Clifford, 
 J. Cioslowski, B. B. Stefanov, G. Liu, A. Liashenko, P. Piskorz, 
 I. Komaromi, R. L. Martin, D. J. Fox, T. Keith, M. A. Al-Laham, 
 C. Y. Peng, A. Nanayakkara, M. Challacombe, P. M. W. Gill, 
 B. Johnson, W. Chen, M. W. Wong, C. Gonzalez, and J. A. Pople, 
 Gaussian, Inc., Wallingford CT, 2004.
 
 ******************************************
 Gaussian 03:  EM64L-G03RevE.01 11-Sep-2007
                16-Dec-2012 
 ******************************************
 ----------------
 # PM3 Opt NoSymm
 ----------------
 1/14=-1,18=50,26=3,38=1/1,3;
 2/9=110,15=1,17=6,18=5,40=1/2;
 3/5=2,11=9,12=1,16=1,25=1,30=1/1;
 4/5=3,11=1,20=7,22=1,24=3,35=1/1,2;
 6/7=2,8=2,9=2,10=2/1;
 7/30=1/16;
 1/14=-1,18=50/3(3);
 2/9=110,15=1/2;
 6/7=2,8=2,9=2,10=2/1;
 99//99;
 2/9=110,15=1/2;
 3/5=2,11=9,12=1,16=1,25=1,30=1/1;
 4/5=5,11=1,16=3,20=7,22=1,24=3,35=1/1,2;
 7/30=1/16;
 1/14=-1,18=50/3(-4);
 2/9=110,15=1/2;
 6/7=2,8=2,9=2,10=2/1;
 99//99;
 ---------
 reaktant2
 ---------
 Symbolic Z-matrix:
 Charge =  0 Multiplicity = 1
 C                    -3.961     0.19636   1.35463 
 C                    -2.8507    0.64573   0.75344 
 H                    -4.15739  -0.86625   1.44343 
 H                    -4.70035   0.87965   1.76511 
 C                    -2.61325   2.11095   0.61473 
 H                    -2.15011  -0.05813   0.33145 
 O                    -3.54277   2.8955    0.80107 
 N                    -1.33728   2.52751   0.26073 
 C                    -0.19338   1.6639    0.00534 
 H                    -0.25406   0.72347   0.55447 
 H                     0.7219    2.17337   0.32261 
 H                    -0.14318   1.46181  -1.06844 
 C                    -1.14726   3.93219  -0.06783 
 H                    -1.99518   4.55117   0.23629 
 H                    -1.01742   4.02077  -1.15069 
 H                    -0.25016   4.30059   0.43869 
 

 GradGradGradGradGradGradGradGradGradGradGradGradGradGradGradGradGradGrad
 Berny optimization.
 Initialization pass.
                           ----------------------------
                           !    Initial Parameters    !
                           ! (Angstroms and Degrees)  !
 --------------------------                            --------------------------
 ! Name  Definition              Value          Derivative Info.                !
 --------------------------------------------------------------------------------
 ! R1    R(1,2)                  1.3402         estimate D2E/DX2                !
 ! R2    R(1,3)                  1.0842         estimate D2E/DX2                !
 ! R3    R(1,4)                  1.0872         estimate D2E/DX2                !
 ! R4    R(2,5)                  1.4908         estimate D2E/DX2                !
 ! R5    R(2,6)                  1.079          estimate D2E/DX2                !
 ! R6    R(5,7)                  1.2305         estimate D2E/DX2                !
 ! R7    R(5,8)                  1.3881         estimate D2E/DX2                !
 ! R8    R(8,9)                  1.4559         estimate D2E/DX2                !
 ! R9    R(8,13)                 1.4551         estimate D2E/DX2                !
 ! R10   R(9,10)                 1.0907         estimate D2E/DX2                !
 ! R11   R(9,11)                 1.0945         estimate D2E/DX2                !
 ! R12   R(9,12)                 1.0938         estimate D2E/DX2                !
 ! R13   R(13,14)                1.093          estimate D2E/DX2                !
 ! R14   R(13,15)                1.0942         estimate D2E/DX2                !
 ! R15   R(13,16)                1.0941         estimate D2E/DX2                !
 ! A1    A(2,1,3)              121.0247         estimate D2E/DX2                !
 ! A2    A(2,1,4)              121.4681         estimate D2E/DX2                !
 ! A3    A(3,1,4)              117.506          estimate D2E/DX2                !
 ! A4    A(1,2,5)              120.2146         estimate D2E/DX2                !
 ! A5    A(1,2,6)              119.6441         estimate D2E/DX2                !
 ! A6    A(5,2,6)              120.0866         estimate D2E/DX2                !
 ! A7    A(2,5,7)              119.4865         estimate D2E/DX2                !
 ! A8    A(2,5,8)              117.7147         estimate D2E/DX2                !
 ! A9    A(7,5,8)              122.7944         estimate D2E/DX2                !
 ! A10   A(5,8,9)              126.0827         estimate D2E/DX2                !
 ! A11   A(5,8,13)             117.8605         estimate D2E/DX2                !
 ! A12   A(9,8,13)             115.4952         estimate D2E/DX2                !
 ! A13   A(8,9,10)             112.2986         estimate D2E/DX2                !
 ! A14   A(8,9,11)             109.2739         estimate D2E/DX2                !
 ! A15   A(8,9,12)             108.5344         estimate D2E/DX2                !
 ! A16   A(10,9,11)            107.5734         estimate D2E/DX2                !
 ! A17   A(10,9,12)            109.7248         estimate D2E/DX2                !
 ! A18   A(11,9,12)            109.402          estimate D2E/DX2                !
 ! A19   A(8,13,14)            112.4933         estimate D2E/DX2                !
 ! A20   A(8,13,15)            108.4883         estimate D2E/DX2                !
 ! A21   A(8,13,16)            109.123          estimate D2E/DX2                !
 ! A22   A(14,13,15)           108.7582         estimate D2E/DX2                !
 ! A23   A(14,13,16)           108.4571         estimate D2E/DX2                !
 ! A24   A(15,13,16)           109.4874         estimate D2E/DX2                !
 ! D1    D(3,1,2,5)            178.6524         estimate D2E/DX2                !
 ! D2    D(3,1,2,6)              1.3406         estimate D2E/DX2                !
 ! D3    D(4,1,2,5)             -0.9479         estimate D2E/DX2                !
 ! D4    D(1,2,5,7)            -14.6827         estimate D2E/DX2                !
 ! D5    D(1,2,5,8)            166.0637         estimate D2E/DX2                !
 ! D6    D(6,2,5,7)            162.6171         estimate D2E/DX2                !
 ! D7    D(2,5,8,9)              0.1392         estimate D2E/DX2                !
 ! D8    D(2,5,8,13)           171.1236         estimate D2E/DX2                !
 ! D9    D(7,5,8,9)           -179.0878         estimate D2E/DX2                !
 ! D10   D(5,8,9,10)           -27.7492         estimate D2E/DX2                !
 ! D11   D(5,8,9,11)          -147.0315         estimate D2E/DX2                !
 ! D12   D(13,8,9,10)          161.0797         estimate D2E/DX2                !
 ! D13   D(5,8,13,14)           13.9032         estimate D2E/DX2                !
 ! D14   D(5,8,13,15)         -106.458          estimate D2E/DX2                !
 ! D15   D(9,8,13,14)         -174.1623         estimate D2E/DX2                !
 --------------------------------------------------------------------------------
 Trust Radius=3.00D-01 FncErr=1.00D-07 GrdErr=1.00D-06
 Number of steps in this run=  64 maximum allowed number of steps= 100.
 GradGradGradGradGradGradGradGradGradGradGradGradGradGradGradGradGradGrad

                          Input orientation:                          
 ---------------------------------------------------------------------
 Center     Atomic     Atomic              Coordinates (Angstroms)
 Number     Number      Type              X           Y           Z
 ---------------------------------------------------------------------
    1          6             0       -3.961000    0.196360    1.354630
    2          6             0       -2.850700    0.645730    0.753440
    3          1             0       -4.157390   -0.866250    1.443430
    4          1             0       -4.700350    0.879650    1.765110
    5          6             0       -2.613250    2.110950    0.614730
    6          1             0       -2.150110   -0.058130    0.331450
    7          8             0       -3.542770    2.895500    0.801070
    8          7             0       -1.337280    2.527510    0.260730
    9          6             0       -0.193380    1.663900    0.005340
   10          1             0       -0.254060    0.723470    0.554470
   11          1             0        0.721900    2.173370    0.322610
   12          1             0       -0.143180    1.461810   -1.068440
   13          6             0       -1.147260    3.932190   -0.067830
   14          1             0       -1.995180    4.551170    0.236290
   15          1             0       -1.017420    4.020770   -1.150690
   16          1             0       -0.250160    4.300590    0.438690
 ---------------------------------------------------------------------
                    Distance matrix (angstroms):
                    1          2          3          4          5
     1  C    0.000000
     2  C    1.340197   0.000000
     3  H    1.084248   2.114145   0.000000
     4  H    1.087206   2.121179   1.856462   0.000000
     5  C    2.455512   1.490803   3.454683   2.682436   0.000000
     6  H    2.095468   1.079037   2.432844   3.072220   2.235991
     7  O    2.786880   2.354293   3.865378   2.516548   1.230548
     8  N    3.676246   2.464609   4.568305   4.035944   1.388142
     9  C    4.262537   2.942392   4.917635   4.901491   2.535149
    10  H    3.828773   2.605412   4.307371   4.610806   2.737610
    11  H    5.186828   3.909318   5.856876   5.758065   3.348501
    12  H    4.695570   3.363911   5.276669   5.397751   3.058707
    13  C    4.888451   3.791703   5.862578   5.030121   2.435555
    14  H    4.907087   4.031355   5.956574   4.809916   2.545565
    15  H    5.437592   4.286901   6.361748   5.650885   3.051359
    16  H    5.608385   4.496652   6.555317   5.767704   3.226408
                    6          7          8          9         10
     6  H    0.000000
     7  O    3.299087   0.000000
     8  N    2.711315   2.300341   0.000000
     9  C    2.626885   3.656287   1.455869   0.000000
    10  H    2.062921   3.948942   2.124667   1.090704   0.000000
    11  H    3.637047   4.351759   2.090327   1.094512   1.763085
    12  H    2.880569   4.136151   2.080453   1.093784   1.786415
    13  C    4.133738   2.751033   1.455055   2.461784   3.388355
    14  H    4.612885   2.335649   2.128058   3.411180   4.217111
    15  H    4.485215   3.384227   2.079481   2.751415   3.789786
    16  H    4.756023   3.598177   2.087418   2.672667   3.578995
                   11         12         13         14         15
    11  H    0.000000
    12  H    1.785973   0.000000
    13  C    2.596084   2.848188   0.000000
    14  H    3.611635   3.830975   1.092975   0.000000
    15  H    2.934064   2.705427   1.094208   1.777935   0.000000
    16  H    2.341675   3.215829   1.094107   1.774500   1.786929
                   16
    16  H    0.000000
 Symmetry turned off by external request.
 Stoichiometry    C5H9NO
 Framework group  C1[X(C5H9NO)]
 Deg. of freedom    42
 Full point group                 C1
 Rotational constants (GHZ):      4.7703540      1.9618500      1.4203416
 Standard basis: VSTO-3G (5D, 7F)
 Integral buffers will be    131072 words long.
 Raffenetti 1 integral format.
 Two-electron integral symmetry is turned off.
    37 basis functions,   111 primitive gaussians,    37 cartesian basis functions
    20 alpha electrons       20 beta electrons
       nuclear repulsion energy       163.9791598705 Hartrees.
 NAtoms=   16 NActive=   16 NUniq=   16 SFac= 7.50D-01 NAtFMM=   80 NAOKFM=F Big=F
 Simple Huckel Guess.
 RHF-PM3 calculation of energy and first derivatives.
 MO and density RWFs will be updated without deorthogonalization.
 Closed-shell calculation:      20 occupied levels.
 NNHCO=    0.
 References:
  H: (PM3): J. J. P. STEWART, J. COMP. CHEM.     10, 209 (1989).
  C: (PM3): J. J. P. STEWART, J. COMP. CHEM.     10, 209 (1989).
  N: (PM3): J. J. P. STEWART, J. COMP. CHEM.     10, 209 (1989).
  O: (PM3): J. J. P. STEWART, J. COMP. CHEM.     10, 209 (1989).
 Ext34=T Pulay=F Camp-King=F BShift= 0.00D+00
 It=  1 PL= 0.102D+01 DiagD=T ESCF=      8.196714 Diff= 0.386D+01 RMSDP= 0.242D+00.
 It=  2 PL= 0.607D-01 DiagD=T ESCF=     -0.293615 Diff=-0.849D+01 RMSDP= 0.722D-02.
 It=  3 PL= 0.200D-01 DiagD=F ESCF=     -0.824278 Diff=-0.531D+00 RMSDP= 0.368D-02.
 It=  4 PL= 0.511D-02 DiagD=F ESCF=     -0.922030 Diff=-0.978D-01 RMSDP= 0.540D-03.
 It=  5 PL= 0.235D-02 DiagD=F ESCF=     -0.895178 Diff= 0.269D-01 RMSDP= 0.278D-03.
 It=  6 PL= 0.129D-02 DiagD=F ESCF=     -0.895712 Diff=-0.534D-03 RMSDP= 0.314D-03.
 It=  7 PL= 0.307D-03 DiagD=F ESCF=     -0.896162 Diff=-0.450D-03 RMSDP= 0.333D-04.
 It=  8 PL= 0.153D-03 DiagD=F ESCF=     -0.895954 Diff= 0.208D-03 RMSDP= 0.187D-04.
 It=  9 PL= 0.803D-04 DiagD=F ESCF=     -0.895957 Diff=-0.234D-05 RMSDP= 0.266D-04.
 It= 10 PL= 0.863D-05 DiagD=F ESCF=     -0.895960 Diff=-0.308D-05 RMSDP= 0.224D-05.
 It= 11 PL= 0.559D-05 DiagD=F ESCF=     -0.895958 Diff= 0.162D-05 RMSDP= 0.121D-05.
 It= 12 PL= 0.336D-05 DiagD=F ESCF=     -0.895958 Diff=-0.960D-08 RMSDP= 0.187D-05.
 It= 13 PL= 0.612D-06 DiagD=F ESCF=     -0.895958 Diff=-0.149D-07 RMSDP= 0.187D-06.
 It= 14 PL= 0.275D-06 DiagD=F ESCF=     -0.895958 Diff= 0.787D-08 RMSDP= 0.105D-06.
 It= 15 PL= 0.198D-06 DiagD=F ESCF=     -0.895958 Diff=-0.828D-10 RMSDP= 0.179D-06.
 It= 16 PL= 0.114D-06 DiagD=F ESCF=     -0.895958 Diff=-0.135D-09 RMSDP= 0.194D-07.
 Energy=   -0.032926503301 NIter=  17.
 Dipole moment=       1.028396      -0.741361      -0.230068

 **********************************************************************

            Population analysis using the SCF density.

 **********************************************************************

 Alpha  occ. eigenvalues --   -1.42842  -1.26908  -1.19462  -1.02285  -0.92956
 Alpha  occ. eigenvalues --   -0.78005  -0.67908  -0.66702  -0.61501  -0.59518
 Alpha  occ. eigenvalues --   -0.56063  -0.54698  -0.51293  -0.50974  -0.50320
 Alpha  occ. eigenvalues --   -0.48301  -0.46898  -0.39460  -0.38767  -0.33904
 Alpha virt. eigenvalues --    0.00836   0.05327   0.07493   0.10788   0.12958
 Alpha virt. eigenvalues --    0.13258   0.13574   0.13818   0.14086   0.14335
 Alpha virt. eigenvalues --    0.15473   0.15930   0.18825   0.18980   0.19319
 Alpha virt. eigenvalues --    0.22898   0.27560
          Condensed to atoms (all electrons):
              1          2          3          4          5          6
     1  C    4.058693   0.000000   0.000000   0.000000   0.000000   0.000000
     2  C    0.000000   4.228815   0.000000   0.000000   0.000000   0.000000
     3  H    0.000000   0.000000   0.926004   0.000000   0.000000   0.000000
     4  H    0.000000   0.000000   0.000000   0.897722   0.000000   0.000000
     5  C    0.000000   0.000000   0.000000   0.000000   3.710870   0.000000
     6  H    0.000000   0.000000   0.000000   0.000000   0.000000   0.891175
     7  O    0.000000   0.000000   0.000000   0.000000   0.000000   0.000000
     8  N    0.000000   0.000000   0.000000   0.000000   0.000000   0.000000
     9  C    0.000000   0.000000   0.000000   0.000000   0.000000   0.000000
    10  H    0.000000   0.000000   0.000000   0.000000   0.000000   0.000000
    11  H    0.000000   0.000000   0.000000   0.000000   0.000000   0.000000
    12  H    0.000000   0.000000   0.000000   0.000000   0.000000   0.000000
    13  C    0.000000   0.000000   0.000000   0.000000   0.000000   0.000000
    14  H    0.000000   0.000000   0.000000   0.000000   0.000000   0.000000
    15  H    0.000000   0.000000   0.000000   0.000000   0.000000   0.000000
    16  H    0.000000   0.000000   0.000000   0.000000   0.000000   0.000000
              7          8          9         10         11         12
     1  C    0.000000   0.000000   0.000000   0.000000   0.000000   0.000000
     2  C    0.000000   0.000000   0.000000   0.000000   0.000000   0.000000
     3  H    0.000000   0.000000   0.000000   0.000000   0.000000   0.000000
     4  H    0.000000   0.000000   0.000000   0.000000   0.000000   0.000000
     5  C    0.000000   0.000000   0.000000   0.000000   0.000000   0.000000
     6  H    0.000000   0.000000   0.000000   0.000000   0.000000   0.000000
     7  O    6.397760   0.000000   0.000000   0.000000   0.000000   0.000000
     8  N    0.000000   5.030030   0.000000   0.000000   0.000000   0.000000
     9  C    0.000000   0.000000   4.062876   0.000000   0.000000   0.000000
    10  H    0.000000   0.000000   0.000000   0.945269   0.000000   0.000000
    11  H    0.000000   0.000000   0.000000   0.000000   0.951339   0.000000
    12  H    0.000000   0.000000   0.000000   0.000000   0.000000   0.966269
    13  C    0.000000   0.000000   0.000000   0.000000   0.000000   0.000000
    14  H    0.000000   0.000000   0.000000   0.000000   0.000000   0.000000
    15  H    0.000000   0.000000   0.000000   0.000000   0.000000   0.000000
    16  H    0.000000   0.000000   0.000000   0.000000   0.000000   0.000000
             13         14         15         16
     1  C    0.000000   0.000000   0.000000   0.000000
     2  C    0.000000   0.000000   0.000000   0.000000
     3  H    0.000000   0.000000   0.000000   0.000000
     4  H    0.000000   0.000000   0.000000   0.000000
     5  C    0.000000   0.000000   0.000000   0.000000
     6  H    0.000000   0.000000   0.000000   0.000000
     7  O    0.000000   0.000000   0.000000   0.000000
     8  N    0.000000   0.000000   0.000000   0.000000
     9  C    0.000000   0.000000   0.000000   0.000000
    10  H    0.000000   0.000000   0.000000   0.000000
    11  H    0.000000   0.000000   0.000000   0.000000
    12  H    0.000000   0.000000   0.000000   0.000000
    13  C    4.088705   0.000000   0.000000   0.000000
    14  H    0.000000   0.915244   0.000000   0.000000
    15  H    0.000000   0.000000   0.968049   0.000000
    16  H    0.000000   0.000000   0.000000   0.961180
 Mulliken atomic charges:
              1
     1  C   -0.058693
     2  C   -0.228815
     3  H    0.073996
     4  H    0.102278
     5  C    0.289130
     6  H    0.108825
     7  O   -0.397760
     8  N   -0.030030
     9  C   -0.062876
    10  H    0.054731
    11  H    0.048661
    12  H    0.033731
    13  C   -0.088705
    14  H    0.084756
    15  H    0.031951
    16  H    0.038820
 Sum of Mulliken charges=   0.00000
 Atomic charges with hydrogens summed into heavy atoms:
              1
     1  C    0.117581
     2  C   -0.119990
     3  H    0.000000
     4  H    0.000000
     5  C    0.289130
     6  H    0.000000
     7  O   -0.397760
     8  N   -0.030030
     9  C    0.074247
    10  H    0.000000
    11  H    0.000000
    12  H    0.000000
    13  C    0.066822
    14  H    0.000000
    15  H    0.000000
    16  H    0.000000
 Sum of Mulliken charges=   0.00000
 -------------------------------------------------------------------
 Center     Atomic                   Forces (Hartrees/Bohr)
 Number     Number              X              Y              Z
 -------------------------------------------------------------------
    1          6           0.014191003    0.004535475   -0.006862696
    2          6          -0.020345623   -0.000569102    0.010744848
    3          1          -0.002586499   -0.000084767    0.001387045
    4          1          -0.002162073   -0.003005190    0.001562373
    5          6          -0.024984499   -0.030811704    0.005642950
    6          1           0.010421371   -0.005100022   -0.004324097
    7          8           0.007867892    0.009155682   -0.002233253
    8          7          -0.000983550    0.015725593    0.007925174
    9          6           0.003447506   -0.004294809   -0.003858992
   10          1          -0.002760571   -0.005234446    0.001661147
   11          1           0.003554267    0.000961646   -0.000246784
   12          1           0.003692945   -0.003209585   -0.003005032
   13          6           0.008907568    0.011508714   -0.006433194
   14          1          -0.002424667    0.003052208    0.001006811
   15          1           0.001474466    0.003964840   -0.003237816
   16          1           0.002690464    0.003405466    0.000271516
 -------------------------------------------------------------------
 Cartesian Forces:  Max     0.030811704 RMS     0.008527329

 GradGradGradGradGradGradGradGradGradGradGradGradGradGradGradGradGradGrad
 Berny optimization.
 Internal  Forces:  Max     0.025451405 RMS     0.007619506
 Search for a local minimum.
 Step number   1 out of a maximum of  64
 All quantities printed in internal units (Hartrees-Bohrs-Radians)
 Second derivative matrix not updated -- first step.
 RFO step:  Lambda= 1.49252305D-03.
 Linear search not attempted -- first point.
 Iteration  1 RMS(Cart)=  0.08566652 RMS(Int)=  0.00283351
 Iteration  2 RMS(Cart)=  0.00393353 RMS(Int)=  0.00070213
 Iteration  3 RMS(Cart)=  0.00000910 RMS(Int)=  0.00070211
 Iteration  4 RMS(Cart)=  0.00000001 RMS(Int)=  0.00070211
 Variable       Old X    -DE/DX   Delta X   Delta X   Delta X     New X
                                 (Linear)    (Quad)   (Total)
    R1        2.53261  -0.01006   0.00000  -0.01792  -0.01792   2.51469
    R2        2.04893   0.00067   0.00000   0.00147   0.00147   2.05041
    R3        2.05452   0.00017   0.00000   0.00078   0.00078   2.05530
    R4        2.81721   0.00446   0.00000   0.01167   0.01167   2.82888
    R5        2.03908   0.01178   0.00000   0.03256   0.03256   2.07164
    R6        2.32540  -0.00044   0.00000  -0.00059  -0.00059   2.32481
    R7        2.62321   0.02545   0.00000   0.05309   0.05309   2.67629
    R8        2.75119   0.01418   0.00000   0.03829   0.03829   2.78949
    R9        2.74966   0.02446   0.00000   0.06268   0.06268   2.81234
   R10        2.06113   0.00550   0.00000   0.01564   0.01564   2.07677
   R11        2.06833   0.00335   0.00000   0.01012   0.01012   2.07845
   R12        2.06695   0.00371   0.00000   0.01071   0.01071   2.07766
   R13        2.06542   0.00389   0.00000   0.01125   0.01125   2.07667
   R14        2.06775   0.00370   0.00000   0.01052   0.01052   2.07828
   R15        2.06756   0.00348   0.00000   0.00971   0.00971   2.07727
    A1        2.11228   0.00117   0.00000   0.00964   0.00916   2.12144
    A2        2.12002   0.00353   0.00000   0.01928   0.01879   2.13881
    A3        2.05087  -0.00469   0.00000  -0.02857  -0.02906   2.02181
    A4        2.09814   0.00740   0.00000   0.02740   0.02605   2.12419
    A5        2.08818  -0.00014   0.00000   0.00989   0.00853   2.09671
    A6        2.09591  -0.00716   0.00000  -0.03332  -0.03467   2.06124
    A7        2.08543   0.01414   0.00000   0.05228   0.05142   2.13685
    A8        2.05451   0.00028   0.00000   0.00991   0.00909   2.06360
    A9        2.14317  -0.01440   0.00000  -0.06132  -0.06209   2.08108
   A10        2.20056  -0.01749   0.00000  -0.06369  -0.06421   2.13635
   A11        2.05705   0.01811   0.00000   0.06146   0.06049   2.11755
   A12        2.01577  -0.00078   0.00000  -0.00708  -0.00772   2.00805
   A13        1.95998  -0.00412   0.00000  -0.02322  -0.02313   1.93685
   A14        1.90719   0.00189   0.00000   0.00948   0.00959   1.91678
   A15        1.89428   0.00635   0.00000   0.04017   0.03985   1.93413
   A16        1.87751   0.00100   0.00000   0.00444   0.00495   1.88246
   A17        1.91506  -0.00275   0.00000  -0.01683  -0.01714   1.89792
   A18        1.90943  -0.00248   0.00000  -0.01471  -0.01501   1.89442
   A19        1.96338  -0.00013   0.00000  -0.00381  -0.00383   1.95955
   A20        1.89348   0.00524   0.00000   0.03137   0.03137   1.92484
   A21        1.90455   0.00236   0.00000   0.01488   0.01457   1.91913
   A22        1.89819  -0.00175   0.00000  -0.00988  -0.00963   1.88855
   A23        1.89293  -0.00253   0.00000  -0.01435  -0.01464   1.87829
   A24        1.91091  -0.00334   0.00000  -0.01906  -0.01934   1.89157
    D1        3.11807   0.00107   0.00000   0.04160   0.04182  -3.12329
    D2        0.02340  -0.00109   0.00000  -0.05500  -0.05524  -0.03185
    D3       -0.01654  -0.00066   0.00000  -0.01831  -0.01828  -0.03483
    D4       -0.25626  -0.00052   0.00000   0.00795   0.00955  -0.24671
    D5        2.89836  -0.00134   0.00000  -0.06451  -0.06580   2.83256
    D6        2.83820   0.00185   0.00000   0.10615   0.10584   2.94405
    D7        0.00243   0.00181   0.00000   0.08766   0.08683   0.08926
    D8        2.98667   0.00079   0.00000   0.01380   0.01325   2.99992
    D9       -3.12567   0.00073   0.00000   0.01169   0.01306  -3.11261
   D10       -0.48432   0.00092   0.00000   0.01571   0.01703  -0.46728
   D11       -2.56618   0.00101   0.00000   0.01849   0.01914  -2.54704
   D12        2.81137   0.00038   0.00000   0.08245   0.08047   2.89184
   D13        0.24266   0.00132   0.00000   0.03736   0.03821   0.28087
   D14       -1.85804   0.00006   0.00000   0.03093   0.03135  -1.82669
   D15       -3.03971  -0.00134   0.00000  -0.03471  -0.03598  -3.07569
         Item               Value     Threshold  Converged?
 Maximum Force            0.025451     0.000450     NO 
 RMS     Force            0.007620     0.000300     NO 
 Maximum Displacement     0.262113     0.001800     NO 
 RMS     Displacement     0.085423     0.001200     NO 
 Predicted change in Energy=-5.475097D-03
 GradGradGradGradGradGradGradGradGradGradGradGradGradGradGradGradGradGrad

                          Input orientation:                          
 ---------------------------------------------------------------------
 Center     Atomic     Atomic              Coordinates (Angstroms)
 Number     Number      Type              X           Y           Z
 ---------------------------------------------------------------------
    1          6             0       -3.949925    0.146100    1.359831
    2          6             0       -2.876140    0.634662    0.744120
    3          1             0       -4.091788   -0.921419    1.492359
    4          1             0       -4.711735    0.784081    1.802033
    5          6             0       -2.665555    2.107608    0.579719
    6          1             0       -2.093420   -0.042388    0.382525
    7          8             0       -3.563955    2.927310    0.765303
    8          7             0       -1.362133    2.567800    0.271446
    9          6             0       -0.241337    1.646195    0.000474
   10          1             0       -0.392764    0.682940    0.507395
   11          1             0        0.697373    2.080352    0.374696
   12          1             0       -0.136814    1.464810   -1.078863
   13          6             0       -1.107420    3.990844   -0.081943
   14          1             0       -1.943839    4.645928    0.198961
   15          1             0       -0.941071    4.091003   -1.164441
   16          1             0       -0.211066    4.352764    0.441414
 ---------------------------------------------------------------------
                    Distance matrix (angstroms):
                    1          2          3          4          5
     1  C    0.000000
     2  C    1.330716   0.000000
     3  H    1.085029   2.111646   0.000000
     4  H    1.087620   2.123892   1.840914   0.000000
     5  C    2.470970   1.496978   3.470167   2.726285   0.000000
     6  H    2.106482   1.096266   2.449061   3.090895   2.233541
     7  O    2.870115   2.393694   3.952206   2.643036   1.230234
     8  N    3.707544   2.500533   4.595248   4.091967   1.416234
     9  C    4.225135   2.918630   4.862545   4.896256   2.534810
    10  H    3.697058   2.495100   4.150530   4.509970   2.683372
    11  H    5.129249   3.872530   5.761585   5.742479   3.369282
    12  H    4.714449   3.393570   5.286500   5.449115   3.091700
    13  C    4.994056   3.882616   5.959464   5.179168   2.532224
    14  H    5.061665   4.154112   6.105893   5.014475   2.666256
    15  H    5.566634   4.396976   6.489221   5.826973   3.154330
    16  H    5.702506   4.584598   6.631855   5.902780   3.329320
                    6          7          8          9         10
     6  H    0.000000
     7  O    3.335880   0.000000
     8  N    2.712970   2.284986   0.000000
     9  C    2.535250   3.642254   1.476132   0.000000
    10  H    1.853085   3.893605   2.132615   1.098981   0.000000
    11  H    3.506368   4.362204   2.118922   1.099868   1.777292
    12  H    2.869774   4.157541   2.131039   1.099451   1.786909
    13  C    4.177905   2.807756   1.488225   2.500854   3.435154
    14  H    4.694293   2.428821   2.159225   3.454896   4.266877
    15  H    4.561353   3.457979   2.135231   2.797095   3.835436
    16  H    4.781641   3.657689   2.130713   2.742419   3.674912
                   11         12         13         14         15
    11  H    0.000000
    12  H    1.785384   0.000000
    13  C    2.667541   2.883882   0.000000
    14  H    3.686335   3.875266   1.098926   0.000000
    15  H    3.015984   2.747917   1.099776   1.781109   0.000000
    16  H    2.448177   3.264512   1.099245   1.774043   1.783311
                   16
    16  H    0.000000
 Symmetry turned off by external request.
 Stoichiometry    C5H9NO
 Framework group  C1[X(C5H9NO)]
 Deg. of freedom    42
 Full point group                 C1
 Rotational constants (GHZ):      4.6812057      1.9190029      1.3904272
 Standard basis: VSTO-3G (5D, 7F)
 Integral buffers will be    131072 words long.
 Raffenetti 1 integral format.
 Two-electron integral symmetry is turned off.
    37 basis functions,   111 primitive gaussians,    37 cartesian basis functions
    20 alpha electrons       20 beta electrons
       nuclear repulsion energy       162.4042975069 Hartrees.
 NAtoms=   16 NActive=   16 NUniq=   16 SFac= 7.50D-01 NAtFMM=   80 NAOKFM=F Big=F
 Initial guess read from the read-write file:
 RHF-PM3 calculation of energy and first derivatives.
 MO and density RWFs will be updated without deorthogonalization.
 Closed-shell calculation:      20 occupied levels.
 NNHCO=    0.
 References:
  H: (PM3): J. J. P. STEWART, J. COMP. CHEM.     10, 209 (1989).
  C: (PM3): J. J. P. STEWART, J. COMP. CHEM.     10, 209 (1989).
  N: (PM3): J. J. P. STEWART, J. COMP. CHEM.     10, 209 (1989).
  O: (PM3): J. J. P. STEWART, J. COMP. CHEM.     10, 209 (1989).
 Ext34=T Pulay=F Camp-King=F BShift= 0.00D+00
 It=  1 PL= 0.988D+00 DiagD=T ESCF=      5.019071 Diff= 0.683D+00 RMSDP= 0.242D+00.
 It=  2 PL= 0.438D-01 DiagD=T ESCF=     -0.639360 Diff=-0.566D+01 RMSDP= 0.552D-02.
 It=  3 PL= 0.201D-01 DiagD=F ESCF=     -0.990358 Diff=-0.351D+00 RMSDP= 0.307D-02.
 It=  4 PL= 0.475D-02 DiagD=F ESCF=     -1.061805 Diff=-0.714D-01 RMSDP= 0.512D-03.
 It=  5 PL= 0.261D-02 DiagD=F ESCF=     -1.040948 Diff= 0.209D-01 RMSDP= 0.293D-03.
 It=  6 PL= 0.160D-02 DiagD=F ESCF=     -1.041746 Diff=-0.799D-03 RMSDP= 0.442D-03.
 It=  7 PL= 0.178D-03 DiagD=F ESCF=     -1.042871 Diff=-0.112D-02 RMSDP= 0.192D-04.
 It=  8 PL= 0.712D-04 DiagD=F ESCF=     -1.042203 Diff= 0.668D-03 RMSDP= 0.894D-05.
 It=  9 PL= 0.306D-04 DiagD=F ESCF=     -1.042204 Diff=-0.633D-06 RMSDP= 0.101D-04.
 It= 10 PL= 0.609D-05 DiagD=F ESCF=     -1.042205 Diff=-0.518D-06 RMSDP= 0.113D-05.
 It= 11 PL= 0.352D-05 DiagD=F ESCF=     -1.042204 Diff= 0.245D-06 RMSDP= 0.655D-06.
 3-point extrapolation.
 It= 12 PL= 0.210D-05 DiagD=F ESCF=     -1.042204 Diff=-0.294D-08 RMSDP= 0.100D-05.
 It= 13 PL= 0.884D-05 DiagD=F ESCF=     -1.042204 Diff=-0.602D-08 RMSDP= 0.108D-05.
 It= 14 PL= 0.352D-05 DiagD=F ESCF=     -1.042204 Diff= 0.959D-08 RMSDP= 0.697D-06.
 It= 15 PL= 0.215D-05 DiagD=F ESCF=     -1.042204 Diff=-0.327D-08 RMSDP= 0.115D-05.
 It= 16 PL= 0.296D-06 DiagD=F ESCF=     -1.042204 Diff=-0.557D-08 RMSDP= 0.508D-07.
 Energy=   -0.038301052563 NIter=  17.
 Dipole moment=       0.959995      -0.789180      -0.215817
 -------------------------------------------------------------------
 Center     Atomic                   Forces (Hartrees/Bohr)
 Number     Number              X              Y              Z
 -------------------------------------------------------------------
    1          6           0.004341138    0.002536728    0.001086658
    2          6          -0.001730454    0.005699047    0.002927333
    3          1          -0.001819276   -0.000357090    0.000089865
    4          1          -0.001980692   -0.001341239   -0.001521641
    5          6          -0.006632526   -0.006708679    0.003920979
    6          1           0.002814763    0.000699425   -0.002822876
    7          8           0.007404723   -0.002920427   -0.003828547
    8          7           0.002110059    0.010584175    0.003097195
    9          6          -0.001762810    0.003002729   -0.001808523
   10          1          -0.002028214   -0.001601282   -0.000580464
   11          1          -0.000828276    0.000172585   -0.000641309
   12          1           0.001035198   -0.000575810    0.000229390
   13          6          -0.000936405   -0.006924387   -0.000625522
   14          1          -0.000333073   -0.001464054    0.000172883
   15          1           0.000182115    0.000316278    0.000323459
   16          1           0.000163730   -0.001117996   -0.000018881
 -------------------------------------------------------------------
 Cartesian Forces:  Max     0.010584175 RMS     0.003178153

 GradGradGradGradGradGradGradGradGradGradGradGradGradGradGradGradGradGrad
 Berny optimization.
 Internal  Forces:  Max     0.008910569 RMS     0.002620014
 Search for a local minimum.
 Step number   2 out of a maximum of  64
 All quantities printed in internal units (Hartrees-Bohrs-Radians)
   2   1  0.1859938E-03  0.5275667E-02  0.3525504E-01
 Update second derivatives using D2CorL and points  1  2
 Trust test= 9.82D-01 RLast= 2.69D-01 DXMaxT set to 4.24D-01
 RFO step:  Lambda= 3.55607215D-04.
 Quartic linear search produced a step of  0.04350.
 Iteration  1 RMS(Cart)=  0.07786923 RMS(Int)=  0.00412374
 Iteration  2 RMS(Cart)=  0.00557480 RMS(Int)=  0.00058567
 Iteration  3 RMS(Cart)=  0.00001406 RMS(Int)=  0.00058558
 Iteration  4 RMS(Cart)=  0.00000002 RMS(Int)=  0.00058558
 Variable       Old X    -DE/DX   Delta X   Delta X   Delta X     New X
                                 (Linear)    (Quad)   (Total)
    R1        2.51469  -0.00090  -0.00078  -0.00411  -0.00489   2.50980
    R2        2.05041   0.00060   0.00006   0.00143   0.00150   2.05190
    R3        2.05530  -0.00002   0.00003   0.00001   0.00004   2.05535
    R4        2.82888  -0.00738   0.00051  -0.01079  -0.01028   2.81860
    R5        2.07164   0.00251   0.00142   0.01015   0.01157   2.08321
    R6        2.32481  -0.00793  -0.00003  -0.00540  -0.00543   2.31938
    R7        2.67629  -0.00146   0.00231   0.00788   0.01019   2.68649
    R8        2.78949  -0.00283   0.00167   0.00218   0.00385   2.79333
    R9        2.81234  -0.00891   0.00273  -0.00232   0.00041   2.81275
   R10        2.07677   0.00142   0.00068   0.00540   0.00608   2.08285
   R11        2.07845  -0.00086   0.00044   0.00022   0.00066   2.07911
   R12        2.07766  -0.00003   0.00047   0.00187   0.00233   2.07999
   R13        2.07667  -0.00058   0.00049   0.00103   0.00152   2.07819
   R14        2.07828  -0.00026   0.00046   0.00152   0.00198   2.08025
   R15        2.07727  -0.00024   0.00042   0.00147   0.00189   2.07916
    A1        2.12144   0.00108   0.00040   0.00658   0.00505   2.12648
    A2        2.13881   0.00129   0.00082   0.01066   0.00954   2.14835
    A3        2.02181  -0.00211  -0.00126  -0.01202  -0.01522   2.00659
    A4        2.12419   0.00123   0.00113   0.01104   0.01158   2.13576
    A5        2.09671   0.00248   0.00037   0.01144   0.01122   2.10792
    A6        2.06124  -0.00360  -0.00151  -0.01970  -0.02180   2.03944
    A7        2.13685   0.00449   0.00224   0.02262   0.02445   2.16130
    A8        2.06360  -0.00130   0.00040  -0.00314  -0.00315   2.06045
    A9        2.08108  -0.00309  -0.00270  -0.01658  -0.01969   2.06139
   A10        2.13635  -0.00357  -0.00279  -0.02759  -0.03124   2.10511
   A11        2.11755   0.00269   0.00263   0.01628   0.01776   2.13531
   A12        2.00805   0.00052  -0.00034  -0.00376  -0.00512   2.00293
   A13        1.93685  -0.00165  -0.00101  -0.01156  -0.01252   1.92434
   A14        1.91678  -0.00049   0.00042   0.00037   0.00085   1.91762
   A15        1.93413   0.00196   0.00173   0.01509   0.01672   1.95085
   A16        1.88246   0.00118   0.00022   0.00573   0.00616   1.88862
   A17        1.89792  -0.00029  -0.00075  -0.00446  -0.00530   1.89262
   A18        1.89442  -0.00072  -0.00065  -0.00537  -0.00612   1.88830
   A19        1.95955  -0.00182  -0.00017  -0.00660  -0.00673   1.95283
   A20        1.92484   0.00128   0.00136   0.01141   0.01282   1.93767
   A21        1.91913  -0.00146   0.00063  -0.00339  -0.00287   1.91626
   A22        1.88855   0.00087  -0.00042   0.00159   0.00136   1.88991
   A23        1.87829   0.00114  -0.00064   0.00080   0.00006   1.87835
   A24        1.89157   0.00007  -0.00084  -0.00399  -0.00494   1.88663
    D1       -3.12329  -0.00205   0.00182  -0.04763  -0.04591   3.11398
    D2       -0.03185   0.00054  -0.00240   0.01811   0.01591  -0.01594
    D3       -0.03483   0.00408  -0.00080   0.07509   0.07420   0.03937
    D4       -0.24671   0.00109   0.00042   0.03024   0.03017  -0.21654
    D5        2.83256   0.00268  -0.00286   0.08435   0.08175   2.91431
    D6        2.94405  -0.00162   0.00460  -0.03506  -0.03024   2.91381
    D7        0.08926   0.00175   0.00378   0.07379   0.07767   0.16693
    D8        2.99992  -0.00011   0.00058  -0.00741  -0.00665   2.99327
    D9       -3.11261   0.00357   0.00057   0.12754   0.12783  -2.98478
   D10       -0.46728   0.00063   0.00074   0.05711   0.05843  -0.40885
   D11       -2.54704   0.00051   0.00083   0.05700   0.05808  -2.48896
   D12        2.89184   0.00207   0.00350   0.13085   0.13352   3.02537
   D13        0.28087   0.00105   0.00166   0.02686   0.02902   0.30989
   D14       -1.82669   0.00028   0.00136   0.02133   0.02292  -1.80377
   D15       -3.07569  -0.00122  -0.00157  -0.05197  -0.05427  -3.12996
         Item               Value     Threshold  Converged?
 Maximum Force            0.008911     0.000450     NO 
 RMS     Force            0.002620     0.000300     NO 
 Maximum Displacement     0.232545     0.001800     NO 
 RMS     Displacement     0.079368     0.001200     NO 
 Predicted change in Energy=-1.295642D-03
 GradGradGradGradGradGradGradGradGradGradGradGradGradGradGradGradGradGrad

                          Input orientation:                          
 ---------------------------------------------------------------------
 Center     Atomic     Atomic              Coordinates (Angstroms)
 Number     Number      Type              X           Y           Z
 ---------------------------------------------------------------------
    1          6             0       -3.935717    0.134576    1.376914
    2          6             0       -2.837437    0.647423    0.834053
    3          1             0       -4.069959   -0.936435    1.494901
    4          1             0       -4.787253    0.740062    1.678976
    5          6             0       -2.655242    2.114317    0.634762
    6          1             0       -2.016106   -0.006549    0.497907
    7          8             0       -3.560424    2.936206    0.742300
    8          7             0       -1.354190    2.588970    0.313835
    9          6             0       -0.269558    1.642837   -0.022897
   10          1             0       -0.481199    0.650673    0.407984
   11          1             0        0.683138    2.002461    0.393655
   12          1             0       -0.148391    1.531123   -1.111174
   13          6             0       -1.097215    3.999613   -0.085552
   14          1             0       -1.927127    4.663456    0.197227
   15          1             0       -0.945164    4.080724   -1.172802
   16          1             0       -0.189745    4.369130    0.414940
 ---------------------------------------------------------------------
                    Distance matrix (angstroms):
                    1          2          3          4          5
     1  C    0.000000
     2  C    1.328130   0.000000
     3  H    1.085821   2.112922   0.000000
     4  H    1.087644   2.127031   1.832768   0.000000
     5  C    2.471797   1.491539   3.471073   2.743069   0.000000
     6  H    2.116005   1.102388   2.465157   3.103484   2.219302
     7  O    2.897018   2.402011   3.977862   2.684310   1.227363
     8  N    3.717320   2.498049   4.604215   4.131343   1.421628
     9  C    4.204170   2.884305   4.837293   4.911308   2.519186
    10  H    3.624759   2.394452   4.071793   4.490603   2.630617
    11  H    5.078347   3.797963   5.695769   5.759417   3.348944
    12  H    4.741810   3.434501   5.315935   5.470809   3.110098
    13  C    5.013423   3.887315   5.974915   5.230163   2.549636
    14  H    5.092823   4.166861   6.134693   5.076309   2.686949
    15  H    5.569250   4.404057   6.484818   5.835607   3.171500
    16  H    5.734905   4.586613   6.661185   5.992078   3.348309
                    6          7          8          9         10
     6  H    0.000000
     7  O    3.332335   0.000000
     8  N    2.684909   2.274120   0.000000
     9  C    2.458077   3.617752   1.478168   0.000000
    10  H    1.672114   3.849293   2.127903   1.102198   0.000000
    11  H    3.366438   4.359042   2.121572   1.100215   1.784158
    12  H    2.905501   4.129357   2.145609   1.100685   1.787119
    13  C    4.151400   2.807769   1.488442   2.498667   3.440706
    14  H    4.680521   2.438883   2.155307   3.452554   4.270545
    15  H    4.543565   3.437604   2.145396   2.778852   3.805181
    16  H    4.742261   3.677214   2.129583   2.762379   3.729868
                   11         12         13         14         15
    11  H    0.000000
    12  H    1.782726   0.000000
    13  C    2.718072   2.836478   0.000000
    14  H    3.732688   3.832404   1.099730   0.000000
    15  H    3.069908   2.671911   1.100823   1.783482   0.000000
    16  H    2.522597   3.222579   1.100244   1.775534   1.781785
                   16
    16  H    0.000000
 Symmetry turned off by external request.
 Stoichiometry    C5H9NO
 Framework group  C1[X(C5H9NO)]
 Deg. of freedom    42
 Full point group                 C1
 Rotational constants (GHZ):      4.7040740      1.9188090      1.3902709
 Standard basis: VSTO-3G (5D, 7F)
 Integral buffers will be    131072 words long.
 Raffenetti 1 integral format.
 Two-electron integral symmetry is turned off.
    37 basis functions,   111 primitive gaussians,    37 cartesian basis functions
    20 alpha electrons       20 beta electrons
       nuclear repulsion energy       162.5002398611 Hartrees.
 NAtoms=   16 NActive=   16 NUniq=   16 SFac= 7.50D-01 NAtFMM=   80 NAOKFM=F Big=F
 Initial guess read from the read-write file:
 RHF-PM3 calculation of energy and first derivatives.
 MO and density RWFs will be updated without deorthogonalization.
 Closed-shell calculation:      20 occupied levels.
 NNHCO=    0.
 References:
  H: (PM3): J. J. P. STEWART, J. COMP. CHEM.     10, 209 (1989).
  C: (PM3): J. J. P. STEWART, J. COMP. CHEM.     10, 209 (1989).
  N: (PM3): J. J. P. STEWART, J. COMP. CHEM.     10, 209 (1989).
  O: (PM3): J. J. P. STEWART, J. COMP. CHEM.     10, 209 (1989).
 Ext34=T Pulay=F Camp-King=F BShift= 0.00D+00
 It=  1 PL= 0.988D+00 DiagD=T ESCF=      4.969986 Diff= 0.634D+00 RMSDP= 0.242D+00.
 It=  2 PL= 0.439D-01 DiagD=T ESCF=     -0.643362 Diff=-0.561D+01 RMSDP= 0.559D-02.
 It=  3 PL= 0.193D-01 DiagD=F ESCF=     -1.000534 Diff=-0.357D+00 RMSDP= 0.314D-02.
 It=  4 PL= 0.469D-02 DiagD=F ESCF=     -1.074860 Diff=-0.743D-01 RMSDP= 0.518D-03.
 It=  5 PL= 0.259D-02 DiagD=F ESCF=     -1.053229 Diff= 0.216D-01 RMSDP= 0.295D-03.
 It=  6 PL= 0.160D-02 DiagD=F ESCF=     -1.054029 Diff=-0.800D-03 RMSDP= 0.443D-03.
 It=  7 PL= 0.176D-03 DiagD=F ESCF=     -1.055147 Diff=-0.112D-02 RMSDP= 0.227D-04.
 It=  8 PL= 0.713D-04 DiagD=F ESCF=     -1.054485 Diff= 0.662D-03 RMSDP= 0.118D-04.
 It=  9 PL= 0.307D-04 DiagD=F ESCF=     -1.054486 Diff=-0.106D-05 RMSDP= 0.145D-04.
 It= 10 PL= 0.112D-04 DiagD=F ESCF=     -1.054487 Diff=-0.106D-05 RMSDP= 0.216D-05.
 It= 11 PL= 0.720D-05 DiagD=F ESCF=     -1.054487 Diff= 0.462D-06 RMSDP= 0.142D-05.
 3-point extrapolation.
 It= 12 PL= 0.475D-05 DiagD=F ESCF=     -1.054487 Diff=-0.139D-07 RMSDP= 0.263D-05.
 It= 13 PL= 0.186D-04 DiagD=F ESCF=     -1.054487 Diff=-0.145D-07 RMSDP= 0.193D-05.
 It= 14 PL= 0.648D-05 DiagD=F ESCF=     -1.054487 Diff= 0.253D-07 RMSDP= 0.133D-05.
 It= 15 PL= 0.443D-05 DiagD=F ESCF=     -1.054487 Diff=-0.121D-07 RMSDP= 0.264D-05.
 It= 16 PL= 0.536D-06 DiagD=F ESCF=     -1.054487 Diff=-0.291D-07 RMSDP= 0.103D-06.
 It= 17 PL= 0.354D-06 DiagD=F ESCF=     -1.054487 Diff= 0.184D-07 RMSDP= 0.644D-07.
 Energy=   -0.038752436553 NIter=  18.
 Dipole moment=       0.890323      -0.820816      -0.241465
 -------------------------------------------------------------------
 Center     Atomic                   Forces (Hartrees/Bohr)
 Number     Number              X              Y              Z
 -------------------------------------------------------------------
    1          6          -0.002392532    0.000311676   -0.004071721
    2          6          -0.000811625    0.003782854    0.000883306
    3          1          -0.000171570   -0.000122069    0.001517442
    4          1           0.000528347   -0.000144231    0.002091881
    5          6          -0.003015290   -0.000356205   -0.004365106
    6          1          -0.003875674   -0.001729826    0.001463076
    7          8           0.003146556   -0.002855149    0.000664908
    8          7           0.005081080    0.005963029    0.003262127
    9          6           0.000260044    0.003744480   -0.001243622
   10          1           0.005536584    0.001216369   -0.001248001
   11          1          -0.001316720    0.000192978   -0.000472512
   12          1           0.000043489    0.000239014    0.000652718
   13          6          -0.002591880   -0.006553734    0.000292845
   14          1           0.000269940   -0.001614579   -0.000156281
   15          1          -0.000318712   -0.000298457    0.000814443
   16          1          -0.000372038   -0.001776151   -0.000085503
 -------------------------------------------------------------------
 Cartesian Forces:  Max     0.006553734 RMS     0.002468676

 GradGradGradGradGradGradGradGradGradGradGradGradGradGradGradGradGradGrad
 Berny optimization.
 Internal  Forces:  Max     0.021331483 RMS     0.005614466
 Search for a local minimum.
 Step number   3 out of a maximum of  64
 All quantities printed in internal units (Hartrees-Bohrs-Radians)
   2   1  0.2108839E-02  0.1124324E-01  0.1875652    
 Update second derivatives using D2CorL and points  2  3
 Trust test= 3.48D-01 RLast= 2.69D-01 DXMaxT set to 4.24D-01
 RFO step:  Lambda= 2.94092388D-04.
 Quartic linear search produced a step of -0.37898.
 Iteration  1 RMS(Cart)=  0.05922987 RMS(Int)=  0.00147840
 Iteration  2 RMS(Cart)=  0.00259996 RMS(Int)=  0.00046273
 Iteration  3 RMS(Cart)=  0.00000268 RMS(Int)=  0.00046273
 Iteration  4 RMS(Cart)=  0.00000000 RMS(Int)=  0.00046273
 Variable       Old X    -DE/DX   Delta X   Delta X   Delta X     New X
                                 (Linear)    (Quad)   (Total)
    R1        2.50980   0.00148   0.00185  -0.00299  -0.00114   2.50866
    R2        2.05190   0.00031  -0.00057   0.00180   0.00124   2.05314
    R3        2.05535   0.00009  -0.00002   0.00005   0.00004   2.05539
    R4        2.81860  -0.00099   0.00390  -0.01133  -0.00743   2.81117
    R5        2.08321  -0.00231  -0.00438   0.00715   0.00277   2.08598
    R6        2.31938  -0.00417   0.00206  -0.00712  -0.00507   2.31431
    R7        2.68649   0.00599  -0.00386   0.01368   0.00981   2.69630
    R8        2.79333   0.00039  -0.00146   0.00290   0.00144   2.79478
    R9        2.81275  -0.01046  -0.00016  -0.01366  -0.01381   2.79894
   R10        2.08285  -0.00265  -0.00230   0.00193  -0.00037   2.08248
   R11        2.07911  -0.00126  -0.00025  -0.00139  -0.00164   2.07746
   R12        2.07999  -0.00066  -0.00088   0.00101   0.00013   2.08012
   R13        2.07819  -0.00122  -0.00058  -0.00047  -0.00105   2.07714
   R14        2.08025  -0.00087  -0.00075   0.00047  -0.00028   2.07997
   R15        2.07916  -0.00094  -0.00072   0.00032  -0.00040   2.07876
    A1        2.12648   0.00078  -0.00191   0.00529   0.00409   2.13057
    A2        2.14835   0.00026  -0.00362   0.00885   0.00595   2.15430
    A3        2.00659  -0.00079   0.00577  -0.01691  -0.01044   1.99616
    A4        2.13576  -0.00432  -0.00439   0.00247  -0.00195   2.13381
    A5        2.10792  -0.00183  -0.00425   0.00264  -0.00165   2.10628
    A6        2.03944   0.00615   0.00826  -0.00572   0.00250   2.04195
    A7        2.16130  -0.01042  -0.00927   0.00342  -0.00606   2.15524
    A8        2.06045   0.02030   0.00120   0.03075   0.03175   2.09219
    A9        2.06139  -0.00991   0.00746  -0.03443  -0.02715   2.03424
   A10        2.10511   0.02133   0.01184   0.00289   0.01306   2.11817
   A11        2.13531  -0.01172  -0.00673  -0.01117  -0.01912   2.11619
   A12        2.00293  -0.01002   0.00194  -0.02856  -0.02787   1.97506
   A13        1.92434   0.00821   0.00474   0.01123   0.01594   1.94027
   A14        1.91762  -0.00325  -0.00032  -0.00784  -0.00820   1.90943
   A15        1.95085  -0.00078  -0.00634   0.01228   0.00595   1.95680
   A16        1.88862  -0.00299  -0.00233  -0.00126  -0.00368   1.88494
   A17        1.89262  -0.00045   0.00201  -0.00681  -0.00480   1.88782
   A18        1.88830  -0.00095   0.00232  -0.00832  -0.00599   1.88231
   A19        1.95283  -0.00113   0.00255  -0.00873  -0.00627   1.94655
   A20        1.93767   0.00000  -0.00486   0.01191   0.00696   1.94463
   A21        1.91626  -0.00166   0.00109  -0.00869  -0.00742   1.90884
   A22        1.88991   0.00020  -0.00051   0.00330   0.00245   1.89236
   A23        1.87835   0.00190  -0.00002   0.00509   0.00524   1.88359
   A24        1.88663   0.00085   0.00187  -0.00280  -0.00075   1.88589
    D1        3.11398   0.00115   0.01740  -0.03010  -0.01269   3.10129
    D2       -0.01594   0.00115  -0.00603   0.03484   0.02876   0.01283
    D3        0.03937  -0.00366  -0.02812   0.02310  -0.00497   0.03439
    D4       -0.21654   0.00043  -0.01143   0.03375   0.02270  -0.19384
    D5        2.91431  -0.00294  -0.03098   0.00359  -0.02773   2.88659
    D6        2.91381   0.00038   0.01146  -0.02874  -0.01733   2.89648
    D7        0.16693   0.00208  -0.02943   0.13157   0.10221   0.26914
    D8        2.99327  -0.00117   0.00252  -0.01535  -0.01328   2.97999
    D9       -2.98478  -0.00111  -0.04844   0.10338   0.05530  -2.92948
   D10       -0.40885  -0.00281  -0.02214   0.00472  -0.01773  -0.42659
   D11       -2.48896  -0.00218  -0.02201   0.00420  -0.01788  -2.50684
   D12        3.02537   0.00104  -0.05060   0.13861   0.08839   3.11375
   D13        0.30989  -0.00073  -0.01100   0.05629   0.04431   0.35420
   D14       -1.80377  -0.00020  -0.00869   0.04974   0.04065  -1.76311
   D15       -3.12996   0.00151   0.02057  -0.07763  -0.05568   3.09755
         Item               Value     Threshold  Converged?
 Maximum Force            0.021331     0.000450     NO 
 RMS     Force            0.005614     0.000300     NO 
 Maximum Displacement     0.185550     0.001800     NO 
 RMS     Displacement     0.059541     0.001200     NO 
 Predicted change in Energy=-1.245098D-03
 GradGradGradGradGradGradGradGradGradGradGradGradGradGradGradGradGradGrad

                          Input orientation:                          
 ---------------------------------------------------------------------
 Center     Atomic     Atomic              Coordinates (Angstroms)
 Number     Number      Type              X           Y           Z
 ---------------------------------------------------------------------
    1          6             0       -3.968076    0.151827    1.392994
    2          6             0       -2.850102    0.630274    0.860497
    3          1             0       -4.133927   -0.913684    1.525685
    4          1             0       -4.815268    0.775695    1.668799
    5          6             0       -2.639233    2.084817    0.630686
    6          1             0       -2.050851   -0.051565    0.521704
    7          8             0       -3.530203    2.919834    0.724292
    8          7             0       -1.329145    2.578143    0.354785
    9          6             0       -0.231873    1.669003   -0.041072
   10          1             0       -0.414256    0.644087    0.320437
   11          1             0        0.711553    2.021754    0.399469
   12          1             0       -0.100191    1.629312   -1.133200
   13          6             0       -1.110380    3.977935   -0.077049
   14          1             0       -1.960844    4.620467    0.191372
   15          1             0       -0.954625    4.043364   -1.164679
   16          1             0       -0.214169    4.377328    0.420310
 ---------------------------------------------------------------------
                    Distance matrix (angstroms):
                    1          2          3          4          5
     1  C    0.000000
     2  C    1.327527   0.000000
     3  H    1.086475   2.115298   0.000000
     4  H    1.087664   2.129877   1.827213   0.000000
     5  C    2.466452   1.487607   3.467873   2.743466   0.000000
     6  H    2.115719   1.103851   2.467880   3.105187   2.218603
     7  O    2.881103   2.392316   3.962648   2.672231   1.224681
     8  N    3.732136   2.522548   4.629326   4.138659   1.426822
     9  C    4.279904   2.957517   4.934675   4.972842   2.533681
    10  H    3.744641   2.495035   4.208946   4.604813   2.668797
    11  H    5.136404   3.851513   5.776143   5.805998   3.359345
    12  H    4.850273   3.540469   5.459627   5.550839   3.124982
    13  C    4.996654   3.887475   5.969801   5.198896   2.534201
    14  H    5.043968   4.142481   6.093399   5.011267   2.661340
    15  H    5.546768   4.398109   6.474438   5.797484   3.145973
    16  H    5.735223   4.602426   6.676913   5.974997   3.343770
                    6          7          8          9         10
     6  H    0.000000
     7  O    3.325468   0.000000
     8  N    2.732048   2.257862   0.000000
     9  C    2.566272   3.609617   1.478933   0.000000
    10  H    1.789660   3.879593   2.139806   1.102000   0.000000
    11  H    3.456077   4.347936   2.115659   1.099346   1.780915
    12  H    3.060904   4.108613   2.150513   1.100754   1.783919
    13  C    4.180893   2.759939   1.481134   2.470675   3.428866
    14  H    4.684561   2.374667   2.144023   3.428485   4.268511
    15  H    4.562242   3.385872   2.143808   2.724418   3.748687
    16  H    4.795704   3.634938   2.117672   2.747401   3.739933
                   11         12         13         14         15
    11  H    0.000000
    12  H    1.778205   0.000000
    13  C    2.715355   2.766219   0.000000
    14  H    3.733406   3.763446   1.099175   0.000000
    15  H    3.051166   2.560995   1.100673   1.784489   0.000000
    16  H    2.531032   3.158794   1.100034   1.778314   1.781011
                   16
    16  H    0.000000
 Symmetry turned off by external request.
 Stoichiometry    C5H9NO
 Framework group  C1[X(C5H9NO)]
 Deg. of freedom    42
 Full point group                 C1
 Rotational constants (GHZ):      4.7801991      1.8996329      1.3878022
 Standard basis: VSTO-3G (5D, 7F)
 Integral buffers will be    131072 words long.
 Raffenetti 1 integral format.
 Two-electron integral symmetry is turned off.
    37 basis functions,   111 primitive gaussians,    37 cartesian basis functions
    20 alpha electrons       20 beta electrons
       nuclear repulsion energy       162.5487990460 Hartrees.
 NAtoms=   16 NActive=   16 NUniq=   16 SFac= 7.50D-01 NAtFMM=   80 NAOKFM=F Big=F
 Initial guess read from the read-write file:
 RHF-PM3 calculation of energy and first derivatives.
 MO and density RWFs will be updated without deorthogonalization.
 Closed-shell calculation:      20 occupied levels.
 NNHCO=    0.
 References:
  H: (PM3): J. J. P. STEWART, J. COMP. CHEM.     10, 209 (1989).
  C: (PM3): J. J. P. STEWART, J. COMP. CHEM.     10, 209 (1989).
  N: (PM3): J. J. P. STEWART, J. COMP. CHEM.     10, 209 (1989).
  O: (PM3): J. J. P. STEWART, J. COMP. CHEM.     10, 209 (1989).
 Ext34=T Pulay=F Camp-King=F BShift= 0.00D+00
 It=  1 PL= 0.987D+00 DiagD=T ESCF=      4.844956 Diff= 0.509D+00 RMSDP= 0.242D+00.
 It=  2 PL= 0.440D-01 DiagD=T ESCF=     -0.696179 Diff=-0.554D+01 RMSDP= 0.541D-02.
 It=  3 PL= 0.192D-01 DiagD=F ESCF=     -1.035295 Diff=-0.339D+00 RMSDP= 0.294D-02.
 It=  4 PL= 0.473D-02 DiagD=F ESCF=     -1.101196 Diff=-0.659D-01 RMSDP= 0.505D-03.
 It=  5 PL= 0.277D-02 DiagD=F ESCF=     -1.082321 Diff= 0.189D-01 RMSDP= 0.292D-03.
 It=  6 PL= 0.170D-02 DiagD=F ESCF=     -1.083086 Diff=-0.765D-03 RMSDP= 0.444D-03.
 It=  7 PL= 0.184D-03 DiagD=F ESCF=     -1.084180 Diff=-0.109D-02 RMSDP= 0.185D-04.
 It=  8 PL= 0.742D-04 DiagD=F ESCF=     -1.083533 Diff= 0.647D-03 RMSDP= 0.863D-05.
 It=  9 PL= 0.317D-04 DiagD=F ESCF=     -1.083533 Diff=-0.585D-06 RMSDP= 0.983D-05.
 It= 10 PL= 0.722D-05 DiagD=F ESCF=     -1.083534 Diff=-0.493D-06 RMSDP= 0.117D-05.
 It= 11 PL= 0.423D-05 DiagD=F ESCF=     -1.083534 Diff= 0.227D-06 RMSDP= 0.702D-06.
 3-point extrapolation.
 It= 12 PL= 0.259D-05 DiagD=F ESCF=     -1.083534 Diff=-0.344D-08 RMSDP= 0.110D-05.
 It= 13 PL= 0.106D-04 DiagD=F ESCF=     -1.083534 Diff=-0.633D-08 RMSDP= 0.111D-05.
 It= 14 PL= 0.418D-05 DiagD=F ESCF=     -1.083534 Diff= 0.102D-07 RMSDP= 0.728D-06.
 It= 15 PL= 0.259D-05 DiagD=F ESCF=     -1.083534 Diff=-0.363D-08 RMSDP= 0.123D-05.
 It= 16 PL= 0.294D-06 DiagD=F ESCF=     -1.083534 Diff=-0.653D-08 RMSDP= 0.650D-07.
 Energy=   -0.039819912060 NIter=  17.
 Dipole moment=       0.815283      -0.835628      -0.280038
 -------------------------------------------------------------------
 Center     Atomic                   Forces (Hartrees/Bohr)
 Number     Number              X              Y              Z
 -------------------------------------------------------------------
    1          6          -0.003725612   -0.001095983   -0.003132012
    2          6           0.003799652    0.001139652   -0.004576028
    3          1           0.000434518    0.000070907    0.001361670
    4          1           0.000887633    0.000489785    0.002423360
    5          6           0.001737396    0.001458582   -0.001040526
    6          1           0.000945403    0.002217073    0.002550661
    7          8          -0.003033417   -0.000756063    0.000219452
    8          7           0.005118030   -0.001125983    0.002980545
    9          6          -0.001842753   -0.000441563   -0.000478713
   10          1          -0.001151937    0.000291121   -0.000236776
   11          1          -0.000732052    0.000329548    0.000109385
   12          1          -0.000411483    0.000062031    0.000214043
   13          6          -0.001954563   -0.001307866   -0.000422568
   14          1           0.000843967   -0.000125166   -0.000326633
   15          1          -0.000453648    0.000065936    0.000393396
   16          1          -0.000461133   -0.001272012   -0.000039256
 -------------------------------------------------------------------
 Cartesian Forces:  Max     0.005118030 RMS     0.001768536

 GradGradGradGradGradGradGradGradGradGradGradGradGradGradGradGradGradGrad
 Berny optimization.
 Internal  Forces:  Max     0.007134297 RMS     0.002169781
 Search for a local minimum.
 Step number   4 out of a maximum of  64
 All quantities printed in internal units (Hartrees-Bohrs-Radians)
   2   1  0.2535104E-03  0.3238457E-02  0.7828121E-01
 Update second derivatives using D2CorL and points  3  4
 Trust test= 8.57D-01 RLast= 1.89D-01 DXMaxT set to 5.67D-01
 RFO step:  Lambda= 1.95471677D-04.
 Quartic linear search produced a step of -0.12736.
 Iteration  1 RMS(Cart)=  0.03499232 RMS(Int)=  0.00183012
 Iteration  2 RMS(Cart)=  0.00189220 RMS(Int)=  0.00076673
 Iteration  3 RMS(Cart)=  0.00000278 RMS(Int)=  0.00076672
 Iteration  4 RMS(Cart)=  0.00000000 RMS(Int)=  0.00076672
 Variable       Old X    -DE/DX   Delta X   Delta X   Delta X     New X
                                 (Linear)    (Quad)   (Total)
    R1        2.50866   0.00248   0.00015   0.00215   0.00229   2.51095
    R2        2.05314   0.00003  -0.00016   0.00063   0.00048   2.05362
    R3        2.05539   0.00020   0.00000   0.00027   0.00027   2.05566
    R4        2.81117  -0.00330   0.00095  -0.00931  -0.00836   2.80281
    R5        2.08598  -0.00147  -0.00035  -0.00185  -0.00220   2.08378
    R6        2.31431   0.00171   0.00065  -0.00210  -0.00146   2.31285
    R7        2.69630  -0.00260  -0.00125   0.00041  -0.00084   2.69547
    R8        2.79478  -0.00311  -0.00018  -0.00474  -0.00492   2.78986
    R9        2.79894  -0.00268   0.00176  -0.01443  -0.01267   2.78627
   R10        2.08248  -0.00016   0.00005  -0.00122  -0.00117   2.08131
   R11        2.07746  -0.00048   0.00021  -0.00202  -0.00181   2.07565
   R12        2.08012  -0.00026  -0.00002  -0.00080  -0.00082   2.07930
   R13        2.07714  -0.00081   0.00013  -0.00219  -0.00206   2.07508
   R14        2.07997  -0.00045   0.00004  -0.00129  -0.00125   2.07872
   R15        2.07876  -0.00086   0.00005  -0.00185  -0.00179   2.07697
    A1        2.13057   0.00044  -0.00052   0.00569   0.00241   2.13298
    A2        2.15430  -0.00005  -0.00076   0.00433   0.00081   2.15511
    A3        1.99616   0.00011   0.00133  -0.00158  -0.00302   1.99313
    A4        2.13381  -0.00001   0.00025  -0.00214  -0.00356   2.13025
    A5        2.10628   0.00164   0.00021   0.00521   0.00374   2.11002
    A6        2.04195  -0.00137  -0.00032   0.00155  -0.00043   2.04151
    A7        2.15524   0.00056   0.00077  -0.00518  -0.00441   2.15083
    A8        2.09219  -0.00713  -0.00404   0.00645   0.00241   2.09460
    A9        2.03424   0.00667   0.00346  -0.00068   0.00277   2.03701
   A10        2.11817  -0.00452  -0.00166   0.00147  -0.00054   2.11763
   A11        2.11619   0.00114   0.00243  -0.01537  -0.01326   2.10294
   A12        1.97506   0.00276   0.00355  -0.01304  -0.00985   1.96521
   A13        1.94027  -0.00142  -0.00203   0.00670   0.00467   1.94494
   A14        1.90943  -0.00047   0.00104  -0.00656  -0.00551   1.90392
   A15        1.95680  -0.00004  -0.00076   0.00090   0.00015   1.95695
   A16        1.88494   0.00083   0.00047  -0.00003   0.00044   1.88537
   A17        1.88782   0.00036   0.00061  -0.00070  -0.00009   1.88773
   A18        1.88231   0.00086   0.00076  -0.00048   0.00029   1.88260
   A19        1.94655   0.00114   0.00080  -0.00056   0.00023   1.94678
   A20        1.94463   0.00013  -0.00089   0.00239   0.00149   1.94612
   A21        1.90884  -0.00184   0.00094  -0.00976  -0.00881   1.90004
   A22        1.89236  -0.00001  -0.00031   0.00197   0.00163   1.89399
   A23        1.88359   0.00051  -0.00067   0.00521   0.00455   1.88814
   A24        1.88589   0.00007   0.00010   0.00100   0.00110   1.88698
    D1        3.10129   0.00414   0.00162   0.07605   0.07758  -3.10431
    D2        0.01283  -0.00167  -0.00366  -0.03051  -0.03425  -0.02142
    D3        0.03439  -0.00448   0.00063  -0.06919  -0.06840  -0.03401
    D4       -0.19384  -0.00217  -0.00289  -0.02172  -0.02451  -0.21835
    D5        2.88659  -0.00006   0.00353  -0.00975  -0.00617   2.88042
    D6        2.89648   0.00352   0.00221   0.08124   0.08329   2.97976
    D7        0.26914   0.00040  -0.01302   0.05274   0.03969   0.30883
    D8        2.97999  -0.00067   0.00169  -0.02524  -0.02346   2.95653
    D9       -2.92948   0.00220  -0.00704   0.06372   0.05662  -2.87286
   D10       -0.42659  -0.00011   0.00226  -0.02069  -0.01845  -0.44503
   D11       -2.50684   0.00004   0.00228  -0.02061  -0.01834  -2.52518
   D12        3.11375   0.00108  -0.01126   0.05239   0.04117  -3.12827
   D13        0.35420   0.00158  -0.00564   0.04662   0.04092   0.39512
   D14       -1.76311   0.00071  -0.00518   0.04282   0.03762  -1.72550
   D15        3.09755  -0.00106   0.00709  -0.02205  -0.01488   3.08267
         Item               Value     Threshold  Converged?
 Maximum Force            0.007134     0.000450     NO 
 RMS     Force            0.002170     0.000300     NO 
 Maximum Displacement     0.154421     0.001800     NO 
 RMS     Displacement     0.035248     0.001200     NO 
 Predicted change in Energy=-7.201249D-04
 GradGradGradGradGradGradGradGradGradGradGradGradGradGradGradGradGradGrad

                          Input orientation:                          
 ---------------------------------------------------------------------
 Center     Atomic     Atomic              Coordinates (Angstroms)
 Number     Number      Type              X           Y           Z
 ---------------------------------------------------------------------
    1          6             0       -3.986907    0.157101    1.352645
    2          6             0       -2.856665    0.630362    0.838712
    3          1             0       -4.137939   -0.902165    1.542700
    4          1             0       -4.809614    0.790176    1.677745
    5          6             0       -2.636498    2.081293    0.623867
    6          1             0       -2.015958   -0.043264    0.603420
    7          8             0       -3.532565    2.912480    0.688255
    8          7             0       -1.320977    2.574486    0.377439
    9          6             0       -0.231548    1.674848   -0.050743
   10          1             0       -0.411727    0.639388    0.278500
   11          1             0        0.711926    2.014667    0.397406
   12          1             0       -0.103617    1.669850   -1.143589
   13          6             0       -1.114350    3.965447   -0.065822
   14          1             0       -1.962054    4.606654    0.209940
   15          1             0       -0.971352    4.024577   -1.154894
   16          1             0       -0.211746    4.362692    0.419449
 ---------------------------------------------------------------------
                    Distance matrix (angstroms):
                    1          2          3          4          5
     1  C    0.000000
     2  C    1.328740   0.000000
     3  H    1.086727   2.117995   0.000000
     4  H    1.087806   2.131555   1.825761   0.000000
     5  C    2.461146   1.483183   3.464044   2.738626   0.000000
     6  H    2.118047   1.102689   2.474421   3.106977   2.213421
     7  O    2.870532   2.384857   3.955764   2.667230   1.223910
     8  N    3.728533   2.520065   4.623873   4.128576   1.426380
     9  C    4.286698   2.961979   4.943678   4.972826   2.530628
    10  H    3.764081   2.508315   4.226020   4.617579   2.673570
    11  H    5.142185   3.853036   5.774149   5.798797   3.356734
    12  H    4.857935   3.548144   5.487000   5.556991   3.115874
    13  C    4.976658   3.869965   5.951729   5.174682   2.518460
    14  H    5.020392   4.123904   6.071064   4.982826   2.646443
    15  H    5.508057   4.364580   6.448028   5.763457   3.116577
    16  H    5.727975   4.593655   6.662988   5.957060   3.335564
                    6          7          8          9         10
     6  H    0.000000
     7  O    3.323209   0.000000
     8  N    2.717845   2.258753   0.000000
     9  C    2.562022   3.602023   1.476328   0.000000
    10  H    1.773456   3.882587   2.140357   1.101382   0.000000
    11  H    3.423284   4.348145   2.108670   1.098388   1.779923
    12  H    3.105455   4.081356   2.147990   1.100320   1.783009
    13  C    4.162997   2.743198   1.474431   2.454875   3.416856
    14  H    4.666848   2.359135   2.137462   3.414395   4.259978
    15  H    4.553043   3.345709   2.138468   2.699571   3.718508
    16  H    4.764607   3.633622   2.104719   2.728732   3.731334
                   11         12         13         14         15
    11  H    0.000000
    12  H    1.777266   0.000000
    13  C    2.712085   2.730005   0.000000
    14  H    3.728768   3.729698   1.098086   0.000000
    15  H    3.046768   2.509547   1.100010   1.784117   0.000000
    16  H    2.523267   3.115474   1.099084   1.779603   1.780415
                   16
    16  H    0.000000
 Symmetry turned off by external request.
 Stoichiometry    C5H9NO
 Framework group  C1[X(C5H9NO)]
 Deg. of freedom    42
 Full point group                 C1
 Rotational constants (GHZ):      4.8101218      1.9064068      1.3949732
 Standard basis: VSTO-3G (5D, 7F)
 Integral buffers will be    131072 words long.
 Raffenetti 1 integral format.
 Two-electron integral symmetry is turned off.
    37 basis functions,   111 primitive gaussians,    37 cartesian basis functions
    20 alpha electrons       20 beta electrons
       nuclear repulsion energy       162.8808550193 Hartrees.
 NAtoms=   16 NActive=   16 NUniq=   16 SFac= 7.50D-01 NAtFMM=   80 NAOKFM=F Big=F
 Initial guess read from the read-write file:
 RHF-PM3 calculation of energy and first derivatives.
 MO and density RWFs will be updated without deorthogonalization.
 Closed-shell calculation:      20 occupied levels.
 NNHCO=    0.
 References:
  H: (PM3): J. J. P. STEWART, J. COMP. CHEM.     10, 209 (1989).
  C: (PM3): J. J. P. STEWART, J. COMP. CHEM.     10, 209 (1989).
  N: (PM3): J. J. P. STEWART, J. COMP. CHEM.     10, 209 (1989).
  O: (PM3): J. J. P. STEWART, J. COMP. CHEM.     10, 209 (1989).
 Ext34=T Pulay=F Camp-King=F BShift= 0.00D+00
 It=  1 PL= 0.987D+00 DiagD=T ESCF=      4.825087 Diff= 0.489D+00 RMSDP= 0.242D+00.
 It=  2 PL= 0.440D-01 DiagD=T ESCF=     -0.707229 Diff=-0.553D+01 RMSDP= 0.537D-02.
 It=  3 PL= 0.193D-01 DiagD=F ESCF=     -1.043737 Diff=-0.337D+00 RMSDP= 0.290D-02.
 It=  4 PL= 0.486D-02 DiagD=F ESCF=     -1.108298 Diff=-0.646D-01 RMSDP= 0.485D-03.
 It=  5 PL= 0.267D-02 DiagD=F ESCF=     -1.089677 Diff= 0.186D-01 RMSDP= 0.278D-03.
 It=  6 PL= 0.164D-02 DiagD=F ESCF=     -1.090389 Diff=-0.712D-03 RMSDP= 0.419D-03.
 It=  7 PL= 0.179D-03 DiagD=F ESCF=     -1.091392 Diff=-0.100D-02 RMSDP= 0.174D-04.
 It=  8 PL= 0.793D-04 DiagD=F ESCF=     -1.090798 Diff= 0.593D-03 RMSDP= 0.802D-05.
 It=  9 PL= 0.418D-04 DiagD=F ESCF=     -1.090799 Diff=-0.528D-06 RMSDP= 0.909D-05.
 It= 10 PL= 0.705D-05 DiagD=F ESCF=     -1.090799 Diff=-0.436D-06 RMSDP= 0.986D-06.
 It= 11 PL= 0.331D-05 DiagD=F ESCF=     -1.090799 Diff= 0.212D-06 RMSDP= 0.576D-06.
 It= 12 PL= 0.189D-05 DiagD=F ESCF=     -1.090799 Diff=-0.237D-08 RMSDP= 0.917D-06.
 It= 13 PL= 0.679D-06 DiagD=F ESCF=     -1.090799 Diff=-0.375D-08 RMSDP= 0.627D-07.
 Energy=   -0.040086913745 NIter=  14.
 Dipole moment=       0.817163      -0.834612      -0.225206
 -------------------------------------------------------------------
 Center     Atomic                   Forces (Hartrees/Bohr)
 Number     Number              X              Y              Z
 -------------------------------------------------------------------
    1          6           0.000588492   -0.000648425    0.004447517
    2          6           0.004341473   -0.001011600    0.002939352
    3          1          -0.000444961   -0.000063345   -0.001438150
    4          1          -0.001012868    0.000140125   -0.002399875
    5          6          -0.000484966    0.000637436   -0.005105873
    6          1          -0.000819922    0.000792606   -0.001868683
    7          8          -0.004055361    0.001092791    0.001263535
    8          7           0.004332523   -0.002518663    0.004274003
    9          6          -0.000524544   -0.002234390   -0.000797150
   10          1          -0.001134255    0.000028871    0.000171673
   11          1          -0.000012295    0.000270617    0.000331896
   12          1          -0.000262439   -0.000246845   -0.000235536
   13          6          -0.000468720    0.002788191   -0.001229502
   14          1           0.000592099    0.000700330   -0.000151716
   15          1          -0.000481999    0.000578097   -0.000240650
   16          1          -0.000152258   -0.000305795    0.000039159
 -------------------------------------------------------------------
 Cartesian Forces:  Max     0.005105873 RMS     0.001887221

 GradGradGradGradGradGradGradGradGradGradGradGradGradGradGradGradGradGrad
 Berny optimization.
 Internal  Forces:  Max     0.007051830 RMS     0.002124296
 Search for a local minimum.
 Step number   5 out of a maximum of  64
 All quantities printed in internal units (Hartrees-Bohrs-Radians)
   2   1  0.9108315E-03  0.2885919E-02  0.3156123    
 Update second derivatives using D2CorL and points  4  5
 Trust test= 3.71D-01 RLast= 1.77D-01 DXMaxT set to 5.67D-01
 RFO step:  Lambda= 7.46422723D-05.
 Quartic linear search produced a step of -0.38340.
 Iteration  1 RMS(Cart)=  0.01759312 RMS(Int)=  0.00044919
 Iteration  2 RMS(Cart)=  0.00061291 RMS(Int)=  0.00029117
 Iteration  3 RMS(Cart)=  0.00000022 RMS(Int)=  0.00029117
 Variable       Old X    -DE/DX   Delta X   Delta X   Delta X     New X
                                 (Linear)    (Quad)   (Total)
    R1        2.51095   0.00118  -0.00088   0.00264   0.00176   2.51272
    R2        2.05362  -0.00013  -0.00018   0.00008  -0.00010   2.05351
    R3        2.05566   0.00013  -0.00010   0.00041   0.00030   2.05596
    R4        2.80281   0.00062   0.00320  -0.00317   0.00003   2.80284
    R5        2.08378  -0.00071   0.00084  -0.00289  -0.00205   2.08173
    R6        2.31285   0.00378   0.00056   0.00156   0.00212   2.31497
    R7        2.69547   0.00104   0.00032   0.00185   0.00217   2.69764
    R8        2.78986   0.00006   0.00189  -0.00228  -0.00039   2.78946
    R9        2.78627   0.00395   0.00486  -0.00212   0.00274   2.78901
   R10        2.08131   0.00021   0.00045  -0.00096  -0.00051   2.08080
   R11        2.07565   0.00021   0.00069  -0.00077  -0.00008   2.07558
   R12        2.07930   0.00020   0.00031  -0.00021   0.00011   2.07941
   R13        2.07508  -0.00009   0.00079  -0.00141  -0.00062   2.07446
   R14        2.07872   0.00021   0.00048  -0.00050  -0.00002   2.07870
   R15        2.07697  -0.00022   0.00069  -0.00149  -0.00080   2.07617
    A1        2.13298   0.00017  -0.00092   0.00140   0.00120   2.13418
    A2        2.15511  -0.00009  -0.00031  -0.00062  -0.00020   2.15490
    A3        1.99313   0.00038   0.00116  -0.00109   0.00080   1.99393
    A4        2.13025   0.00065   0.00136  -0.00172  -0.00005   2.13020
    A5        2.11002   0.00055  -0.00143   0.00253   0.00139   2.11141
    A6        2.04151  -0.00095   0.00017  -0.00043   0.00004   2.04155
    A7        2.15083   0.00103   0.00169  -0.00447  -0.00367   2.14716
    A8        2.09460  -0.00705  -0.00092  -0.00926  -0.01108   2.08352
    A9        2.03701   0.00593  -0.00106   0.01112   0.00915   2.04616
   A10        2.11763  -0.00620   0.00021  -0.01324  -0.01316   2.10447
   A11        2.10294   0.00216   0.00508  -0.01095  -0.00606   2.09687
   A12        1.96521   0.00333   0.00378  -0.00640  -0.00284   1.96237
   A13        1.94494  -0.00187  -0.00179   0.00022  -0.00157   1.94338
   A14        1.90392   0.00008   0.00211  -0.00412  -0.00200   1.90191
   A15        1.95695   0.00033  -0.00006   0.00043   0.00036   1.95731
   A16        1.88537   0.00066  -0.00017   0.00082   0.00067   1.88604
   A17        1.88773   0.00000   0.00003  -0.00007  -0.00004   1.88769
   A18        1.88260   0.00090  -0.00011   0.00287   0.00275   1.88534
   A19        1.94678   0.00140  -0.00009   0.00491   0.00483   1.95161
   A20        1.94612   0.00064  -0.00057   0.00254   0.00197   1.94809
   A21        1.90004  -0.00093   0.00338  -0.00818  -0.00482   1.89522
   A22        1.89399  -0.00045  -0.00063  -0.00129  -0.00189   1.89210
   A23        1.88814  -0.00038  -0.00175   0.00199   0.00023   1.88837
   A24        1.88698  -0.00035  -0.00042  -0.00006  -0.00050   1.88649
    D1       -3.10431  -0.00389  -0.02974  -0.00206  -0.03177  -3.13608
    D2       -0.02142   0.00130   0.01313   0.00587   0.01898  -0.00244
    D3       -0.03401   0.00443   0.02623  -0.00778   0.01843  -0.01557
    D4       -0.21835   0.00279   0.00940   0.04296   0.05215  -0.16620
    D5        2.88042   0.00029   0.00236  -0.03191  -0.02932   2.85110
    D6        2.97976  -0.00226  -0.03193   0.03522   0.00327   2.98304
    D7        0.30883   0.00146  -0.01522   0.07042   0.05521   0.36404
    D8        2.95653   0.00071   0.00899  -0.00397   0.00517   2.96171
    D9       -2.87286  -0.00097  -0.02171  -0.00002  -0.02187  -2.89473
[...]
 Quartic linear search produced a step of  0.08781.
 Iteration  1 RMS(Cart)=  0.00026320 RMS(Int)=  0.00000003
 Iteration  2 RMS(Cart)=  0.00000003 RMS(Int)=  0.00000000
 Variable       Old X    -DE/DX   Delta X   Delta X   Delta X     New X
                                 (Linear)    (Quad)   (Total)
    R1        2.51248   0.00000   0.00000   0.00000   0.00000   2.51247
    R2        2.05291   0.00000   0.00000   0.00000   0.00000   2.05291
    R3        2.05593   0.00000   0.00000   0.00001   0.00001   2.05594
    R4        2.80637   0.00003   0.00000   0.00006   0.00006   2.80643
    R5        2.08157   0.00000  -0.00001  -0.00001  -0.00001   2.08155
    R6        2.31147   0.00002   0.00001   0.00003   0.00004   2.31150
    R7        2.72408  -0.00003  -0.00002  -0.00010  -0.00012   2.72395
    R8        2.79574   0.00001   0.00001   0.00000   0.00000   2.79575
    R9        2.79734  -0.00001   0.00000  -0.00001  -0.00001   2.79733
   R10        2.08192   0.00000   0.00000   0.00000   0.00000   2.08192
   R11        2.07508   0.00001   0.00001   0.00002   0.00003   2.07511
   R12        2.07850   0.00000   0.00000   0.00001   0.00001   2.07851
   R13        2.07476   0.00000  -0.00001  -0.00001  -0.00001   2.07475
   R14        2.07827   0.00000   0.00000   0.00001   0.00001   2.07828
   R15        2.07507   0.00000   0.00001   0.00001   0.00002   2.07509
    A1        2.13324   0.00001   0.00001   0.00005   0.00005   2.13329
    A2        2.15227   0.00000   0.00000   0.00004   0.00004   2.15231
    A3        1.99768  -0.00001  -0.00001  -0.00009  -0.00009   1.99758
    A4        2.13373   0.00000  -0.00001   0.00001  -0.00001   2.13372
    A5        2.11363  -0.00001   0.00000  -0.00003  -0.00003   2.11361
    A6        2.03580   0.00001   0.00001   0.00002   0.00003   2.03584
    A7        2.15686  -0.00002  -0.00002  -0.00004  -0.00006   2.15681
    A8        2.06152   0.00005   0.00002   0.00006   0.00009   2.06161
    A9        2.06221  -0.00002   0.00000  -0.00003  -0.00003   2.06218
   A10        2.05400   0.00004   0.00001   0.00001   0.00002   2.05402
   A11        2.05417  -0.00002   0.00001  -0.00005  -0.00004   2.05412
   A12        1.97304  -0.00002   0.00001  -0.00005  -0.00004   1.97300
   A13        1.92479   0.00002  -0.00001   0.00004   0.00003   1.92482
   A14        1.90296   0.00000   0.00003   0.00002   0.00005   1.90301
   A15        1.96649   0.00000   0.00001   0.00000   0.00001   1.96650
   A16        1.88648  -0.00001  -0.00002  -0.00002  -0.00004   1.88644
   A17        1.89179   0.00000   0.00001   0.00000   0.00001   1.89180
   A18        1.88941  -0.00001  -0.00003  -0.00004  -0.00007   1.88934
   A19        1.91896  -0.00001   0.00001  -0.00006  -0.00004   1.91891
   A20        1.96741   0.00001   0.00001   0.00006   0.00007   1.96747
   A21        1.90320   0.00000   0.00000   0.00001   0.00001   1.90322
   A22        1.89156   0.00000   0.00000   0.00000   0.00000   1.89156
   A23        1.88760   0.00001  -0.00001   0.00003   0.00002   1.88762
   A24        1.89336   0.00000  -0.00002  -0.00004  -0.00006   1.89330
    D1       -3.13432   0.00000   0.00000   0.00000   0.00000  -3.13431
    D2        0.00069   0.00000  -0.00002   0.00012   0.00010   0.00079
    D3        0.00585   0.00000   0.00000  -0.00010  -0.00010   0.00575
    D4        0.05658   0.00000  -0.00005  -0.00027  -0.00032   0.05626
    D5        3.11937   0.00000  -0.00004  -0.00026  -0.00029   3.11907
    D6       -3.07870   0.00000  -0.00003  -0.00038  -0.00042  -3.07912
    D7        0.58875   0.00001  -0.00012   0.00025   0.00013   0.58888
    D8        3.04580   0.00000  -0.00008   0.00009   0.00001   3.04582
    D9       -2.62731   0.00000  -0.00011   0.00027   0.00016  -2.62715
   D10       -0.70721   0.00000  -0.00028   0.00029   0.00001  -0.70720
   D11       -2.77593   0.00000  -0.00027   0.00029   0.00001  -2.77592
   D12        3.08846   0.00000  -0.00032   0.00045   0.00012   3.08859
   D13        0.88344   0.00000  -0.00013   0.00061   0.00048   0.88392
   D14       -1.22912   0.00000  -0.00015   0.00061   0.00046  -1.22866
   D15       -2.91231   0.00001  -0.00009   0.00048   0.00039  -2.91192
         Item               Value     Threshold  Converged?
 Maximum Force            0.000047     0.000450     YES
 RMS     Force            0.000013     0.000300     YES
 Maximum Displacement     0.000716     0.001800     YES
 RMS     Displacement     0.000263     0.001200     YES
 Predicted change in Energy=-1.248540D-08
 Optimization completed.
    -- Stationary point found.
                           ----------------------------
                           !   Optimized Parameters   !
                           ! (Angstroms and Degrees)  !
 --------------------------                            --------------------------
 ! Name  Definition              Value          Derivative Info.                !
 --------------------------------------------------------------------------------
 ! R1    R(1,2)                  1.3295         -DE/DX =    0.0                 !
 ! R2    R(1,3)                  1.0864         -DE/DX =    0.0                 !
 ! R3    R(1,4)                  1.0879         -DE/DX =    0.0                 !
 ! R4    R(2,5)                  1.4851         -DE/DX =    0.0                 !
 ! R5    R(2,6)                  1.1015         -DE/DX =    0.0                 !
 ! R6    R(5,7)                  1.2232         -DE/DX =    0.0                 !
 ! R7    R(5,8)                  1.4415         -DE/DX =    0.0                 !
 ! R8    R(8,9)                  1.4794         -DE/DX =    0.0                 !
 ! R9    R(8,13)                 1.4803         -DE/DX =    0.0                 !
 ! R10   R(9,10)                 1.1017         -DE/DX =    0.0                 !
 ! R11   R(9,11)                 1.0981         -DE/DX =    0.0                 !
 ! R12   R(9,12)                 1.0999         -DE/DX =    0.0                 !
 ! R13   R(13,14)                1.0979         -DE/DX =    0.0                 !
 ! R14   R(13,15)                1.0998         -DE/DX =    0.0                 !
 ! R15   R(13,16)                1.0981         -DE/DX =    0.0                 !
 ! A1    A(2,1,3)              122.2255         -DE/DX =    0.0                 !
 ! A2    A(2,1,4)              123.316          -DE/DX =    0.0                 !
 ! A3    A(3,1,4)              114.4585         -DE/DX =    0.0                 !
 ! A4    A(1,2,5)              122.2537         -DE/DX =    0.0                 !
 ! A5    A(1,2,6)              121.1023         -DE/DX =    0.0                 !
 ! A6    A(5,2,6)              116.6429         -DE/DX =    0.0                 !
 ! A7    A(2,5,7)              123.5792         -DE/DX =    0.0                 !
 ! A8    A(2,5,8)              118.1165         -DE/DX =    0.0                 !
 ! A9    A(7,5,8)              118.156          -DE/DX =    0.0                 !
 ! A10   A(5,8,9)              117.6855         -DE/DX =    0.0                 !
 ! A11   A(5,8,13)             117.6951         -DE/DX =    0.0                 !
 ! A12   A(9,8,13)             113.0468         -DE/DX =    0.0                 !
 ! A13   A(8,9,10)             110.2824         -DE/DX =    0.0                 !
 ! A14   A(8,9,11)             109.0316         -DE/DX =    0.0                 !
 ! A15   A(8,9,12)             112.6714         -DE/DX =    0.0                 !
 ! A16   A(10,9,11)            108.0871         -DE/DX =    0.0                 !
 ! A17   A(10,9,12)            108.3915         -DE/DX =    0.0                 !
 ! A18   A(11,9,12)            108.2554         -DE/DX =    0.0                 !
 ! A19   A(8,13,14)            109.9481         -DE/DX =    0.0                 !
 ! A20   A(8,13,15)            112.724          -DE/DX =    0.0                 !
 ! A21   A(8,13,16)            109.0455         -DE/DX =    0.0                 !
 ! A22   A(14,13,15)           108.3785         -DE/DX =    0.0                 !
 ! A23   A(14,13,16)           108.1517         -DE/DX =    0.0                 !
 ! A24   A(15,13,16)           108.4816         -DE/DX =    0.0                 !
 ! D1    D(3,1,2,5)           -179.5831         -DE/DX =    0.0                 !
 ! D2    D(3,1,2,6)              0.0397         -DE/DX =    0.0                 !
 ! D3    D(4,1,2,5)              0.3351         -DE/DX =    0.0                 !
 ! D4    D(1,2,5,7)              3.2421         -DE/DX =    0.0                 !
 ! D5    D(1,2,5,8)            178.7267         -DE/DX =    0.0                 !
 ! D6    D(6,2,5,7)           -176.3966         -DE/DX =    0.0                 !
 ! D7    D(2,5,8,9)             33.7327         -DE/DX =    0.0                 !
 ! D8    D(2,5,8,13)           174.5117         -DE/DX =    0.0                 !
 ! D9    D(7,5,8,9)           -150.5336         -DE/DX =    0.0                 !
 ! D10   D(5,8,9,10)           -40.5204         -DE/DX =    0.0                 !
 ! D11   D(5,8,9,11)          -159.0493         -DE/DX =    0.0                 !
 ! D12   D(13,8,9,10)          176.9559         -DE/DX =    0.0                 !
 ! D13   D(5,8,13,14)           50.6172         -DE/DX =    0.0                 !
 ! D14   D(5,8,13,15)          -70.4234         -DE/DX =    0.0                 !
 ! D15   D(9,8,13,14)         -166.863          -DE/DX =    0.0                 !
 --------------------------------------------------------------------------------
 GradGradGradGradGradGradGradGradGradGradGradGradGradGradGradGradGradGrad

                          Input orientation:                          
 ---------------------------------------------------------------------
 Center     Atomic     Atomic              Coordinates (Angstroms)
 Number     Number      Type              X           Y           Z
 ---------------------------------------------------------------------
    1          6             0       -3.990376    0.138300    1.231111
    2          6             0       -2.790515    0.671796    1.022764
    3          1             0       -4.120639   -0.903579    1.509822
    4          1             0       -4.917899    0.699593    1.140092
    5          6             0       -2.611191    2.098238    0.650580
    6          1             0       -1.874193    0.069243    1.125837
    7          8             0       -3.534283    2.896133    0.564422
    8          7             0       -1.267933    2.590336    0.473159
    9          6             0       -0.261061    1.656837   -0.077785
   10          1             0       -0.392011    0.653346    0.357657
   11          1             0        0.742448    2.015231    0.187387
   12          1             0       -0.317742    1.570072   -1.172786
   13          6             0       -1.102462    3.976999   -0.017800
   14          1             0       -1.709448    4.663433    0.587010
   15          1             0       -1.394971    4.092292   -1.071671
   16          1             0       -0.049313    4.270322    0.085231
 ---------------------------------------------------------------------
                    Distance matrix (angstroms):
                    1          2          3          4          5
     1  C    0.000000
     2  C    1.329546   0.000000
     3  H    1.086352   2.118552   0.000000
     4  H    1.087950   2.130798   1.828247   0.000000
     5  C    2.465873   1.485065   3.468089   2.741666   0.000000
     6  H    2.119925   1.101518   2.477972   3.108326   2.210398
     7  O    2.873698   2.389758   3.959218   2.659055   1.223175
     8  N    3.741479   2.510202   4.628179   4.164368   1.441519
     9  C    4.234023   2.929105   4.896179   4.907717   2.499692
    10  H    3.738506   2.489083   4.201687   4.593257   2.664259
    11  H    5.197293   3.870982   5.823908   5.888810   3.386492
    12  H    4.617026   3.426652   5.270423   5.221933   2.977168
    13  C    4.963410   3.854434   5.938271   5.161363   2.500547
    14  H    5.108261   4.158336   6.136534   5.129531   2.719817
    15  H    5.260512   4.246645   6.249168   5.367804   2.901997
    16  H    5.823970   4.619799   6.736053   6.129108   3.405992
                    6          7          8          9         10
     6  H    0.000000
     7  O    3.326018   0.000000
     8  N    2.673846   2.288707   0.000000
     9  C    2.563466   3.558408   1.479443   0.000000
    10  H    1.768656   3.866099   2.128969   1.101704   0.000000
    11  H    3.393283   4.382758   2.110461   1.098086   1.780651
    12  H    3.155740   3.888761   2.157066   1.099894   1.785541
    13  C    4.144157   2.724153   1.480289   2.468746   3.419412
    14  H    4.628614   2.540450   2.122647   3.402852   4.227179
    15  H    4.609080   2.946905   2.158358   2.864438   3.856845
    16  H    4.697033   3.776643   2.111368   2.627112   3.643373
                   11         12         13         14         15
    11  H    0.000000
    12  H    1.781078   0.000000
    13  C    2.700801   2.782638   0.000000
    14  H    3.631042   3.821336   1.097916   0.000000
    15  H    3.235424   2.744493   1.099772   1.782223   0.000000
    16  H    2.392228   2.990988   1.098079   1.778304   1.783512
                   16
    16  H    0.000000
 Symmetry turned off by external request.
 Stoichiometry    C5H9NO
 Framework group  C1[X(C5H9NO)]
 Deg. of freedom    42
 Full point group                 C1
 Rotational constants (GHZ):      4.7851851      1.9203356      1.4115282

 **********************************************************************

            Population analysis using the SCF density.

 **********************************************************************

 Alpha  occ. eigenvalues --   -1.42444  -1.25888  -1.20233  -1.01576  -0.91335
 Alpha  occ. eigenvalues --   -0.78214  -0.68158  -0.65866  -0.61505  -0.58251
 Alpha  occ. eigenvalues --   -0.56292  -0.54707  -0.51486  -0.50645  -0.49855
 Alpha  occ. eigenvalues --   -0.48251  -0.46449  -0.39995  -0.39809  -0.34718
 Alpha virt. eigenvalues --    0.00163   0.06007   0.07097   0.10693   0.12750
 Alpha virt. eigenvalues --    0.13022   0.13145   0.13987   0.14241   0.14691
 Alpha virt. eigenvalues --    0.15447   0.16151   0.18155   0.18650   0.19000
 Alpha virt. eigenvalues --    0.21578   0.26669
          Condensed to atoms (all electrons):
              1          2          3          4          5          6
     1  C    4.056656   0.000000   0.000000   0.000000   0.000000   0.000000
     2  C    0.000000   4.211366   0.000000   0.000000   0.000000   0.000000
     3  H    0.000000   0.000000   0.924890   0.000000   0.000000   0.000000
     4  H    0.000000   0.000000   0.000000   0.903098   0.000000   0.000000
     5  C    0.000000   0.000000   0.000000   0.000000   3.712999   0.000000
     6  H    0.000000   0.000000   0.000000   0.000000   0.000000   0.883702
     7  O    0.000000   0.000000   0.000000   0.000000   0.000000   0.000000
     8  N    0.000000   0.000000   0.000000   0.000000   0.000000   0.000000
     9  C    0.000000   0.000000   0.000000   0.000000   0.000000   0.000000
    10  H    0.000000   0.000000   0.000000   0.000000   0.000000   0.000000
    11  H    0.000000   0.000000   0.000000   0.000000   0.000000   0.000000
    12  H    0.000000   0.000000   0.000000   0.000000   0.000000   0.000000
    13  C    0.000000   0.000000   0.000000   0.000000   0.000000   0.000000
    14  H    0.000000   0.000000   0.000000   0.000000   0.000000   0.000000
    15  H    0.000000   0.000000   0.000000   0.000000   0.000000   0.000000
    16  H    0.000000   0.000000   0.000000   0.000000   0.000000   0.000000
              7          8          9         10         11         12
     1  C    0.000000   0.000000   0.000000   0.000000   0.000000   0.000000
     2  C    0.000000   0.000000   0.000000   0.000000   0.000000   0.000000
     3  H    0.000000   0.000000   0.000000   0.000000   0.000000   0.000000
     4  H    0.000000   0.000000   0.000000   0.000000   0.000000   0.000000
     5  C    0.000000   0.000000   0.000000   0.000000   0.000000   0.000000
     6  H    0.000000   0.000000   0.000000   0.000000   0.000000   0.000000
     7  O    6.364994   0.000000   0.000000   0.000000   0.000000   0.000000
     8  N    0.000000   5.063113   0.000000   0.000000   0.000000   0.000000
     9  C    0.000000   0.000000   4.085629   0.000000   0.000000   0.000000
    10  H    0.000000   0.000000   0.000000   0.946380   0.000000   0.000000
    11  H    0.000000   0.000000   0.000000   0.000000   0.949438   0.000000
    12  H    0.000000   0.000000   0.000000   0.000000   0.000000   0.967229
    13  C    0.000000   0.000000   0.000000   0.000000   0.000000   0.000000
    14  H    0.000000   0.000000   0.000000   0.000000   0.000000   0.000000
    15  H    0.000000   0.000000   0.000000   0.000000   0.000000   0.000000
    16  H    0.000000   0.000000   0.000000   0.000000   0.000000   0.000000
             13         14         15         16
     1  C    0.000000   0.000000   0.000000   0.000000
     2  C    0.000000   0.000000   0.000000   0.000000
     3  H    0.000000   0.000000   0.000000   0.000000
     4  H    0.000000   0.000000   0.000000   0.000000
     5  C    0.000000   0.000000   0.000000   0.000000
     6  H    0.000000   0.000000   0.000000   0.000000
     7  O    0.000000   0.000000   0.000000   0.000000
     8  N    0.000000   0.000000   0.000000   0.000000
     9  C    0.000000   0.000000   0.000000   0.000000
    10  H    0.000000   0.000000   0.000000   0.000000
    11  H    0.000000   0.000000   0.000000   0.000000
    12  H    0.000000   0.000000   0.000000   0.000000
    13  C    4.074586   0.000000   0.000000   0.000000
    14  H    0.000000   0.933580   0.000000   0.000000
    15  H    0.000000   0.000000   0.966010   0.000000
    16  H    0.000000   0.000000   0.000000   0.956331
 Mulliken atomic charges:
              1
     1  C   -0.056656
     2  C   -0.211366
     3  H    0.075110
     4  H    0.096902
     5  C    0.287001
     6  H    0.116298
     7  O   -0.364994
     8  N   -0.063113
     9  C   -0.085629
    10  H    0.053620
    11  H    0.050562
    12  H    0.032771
    13  C   -0.074586
    14  H    0.066420
    15  H    0.033990
    16  H    0.043669
 Sum of Mulliken charges=   0.00000
 Atomic charges with hydrogens summed into heavy atoms:
              1
     1  C    0.115357
     2  C   -0.095068
     3  H    0.000000
     4  H    0.000000
     5  C    0.287001
     6  H    0.000000
     7  O   -0.364994
     8  N   -0.063113
     9  C    0.051324
    10  H    0.000000
    11  H    0.000000
    12  H    0.000000
    13  C    0.069493
    14  H    0.000000
    15  H    0.000000
    16  H    0.000000
 Sum of Mulliken charges=   0.00000
 1\1\GINC-WOLF01\FOpt\RPM3\ZDO\C5H9N1O1\XDANEK7\16-Dec-2012\0\\# PM3 Op
 t NoSymm\\reaktant2\\0,1\C,-3.9903757557,0.138299569,1.231111326\C,-2.
 7905154933,0.6717958404,1.0227637453\H,-4.1206392775,-0.9035792109,1.5
 098223696\H,-4.9178991375,0.6995932229,1.1400922487\C,-2.6111907983,2.
 0982384164,0.6505797963\H,-1.8741931861,0.0692425468,1.1258372586\O,-3
 .534282899,2.8961327501,0.5644220634\N,-1.267933379,2.5903355343,0.473
 1587818\C,-0.2610609259,1.6568367633,-0.0777852244\H,-0.3920105272,0.6
 533461402,0.3576571576\H,0.7424479985,2.0152311389,0.1873866471\H,-0.3
 177422842,1.5700716928,-1.1727858724\C,-1.1024620719,3.9769989647,-0.0
 178001729\H,-1.7094477807,4.6634332294,0.5870097469\H,-1.3949714513,4.
 0922916743,-1.0716711502\H,-0.049313031,4.2703217273,0.0852312786\\Ver
 sion=EM64L-G03RevE.01\HF=-0.0416377\RMSD=0.000e+00\RMSF=1.441e-05\Ther
 mal=0.\Dipole=0.7529709,-0.8174906,-0.2347059\PG=C01 [X(C5H9N1O1)]\\@


 COMMON SENSE IS NOT SO COMMON.   -- VOLTAIRE
 Job cpu time:  0 days  0 hours  0 minutes  5.1 seconds.
 File lengths (MBytes):  RWF=     13 Int=      0 D2E=      0 Chk=      6 Scr=      1
 Normal termination of Gaussian 03 at Sun Dec 16 15:07:59 2012.
