 Entering Gaussian System, Link 0=g03
 Input=produkt_step1.com
 Output=produkt_step1.log
 Initial command:
 /software/ncbr/softrepo/secret/gaussian/03.E1/x86_64/node/l1.exe /scratch/xdanek7/QM/05_Optimalizace_TS/produkt_step1/Gau-17039.inp -scrdir=/scratch/xdanek7/QM/05_Optimalizace_TS/produkt_step1/
 Entering Link 1 = /software/ncbr/softrepo/secret/gaussian/03.E1/x86_64/node/l1.exe PID=     17041.
  
 Copyright (c) 1988,1990,1992,1993,1995,1998,2003,2004,2007, Gaussian, Inc.
                  All Rights Reserved.
  
 This is the Gaussian(R) 03 program.  It is based on the
 the Gaussian(R) 98 system (copyright 1998, Gaussian, Inc.),
 the Gaussian(R) 94 system (copyright 1995, Gaussian, Inc.),
 the Gaussian 92(TM) system (copyright 1992, Gaussian, Inc.),
 the Gaussian 90(TM) system (copyright 1990, Gaussian, Inc.),
 the Gaussian 88(TM) system (copyright 1988, Gaussian, Inc.),
 the Gaussian 86(TM) system (copyright 1986, Carnegie Mellon
 University), and the Gaussian 82(TM) system (copyright 1983,
 Carnegie Mellon University). Gaussian is a federally registered
 trademark of Gaussian, Inc.
  
 This software contains proprietary and confidential information,
 including trade secrets, belonging to Gaussian, Inc.
  
 This software is provided under written license and may be
 used, copied, transmitted, or stored only in accord with that
 written license.
  
 The following legend is applicable only to US Government
 contracts under FAR:
  
                    RESTRICTED RIGHTS LEGEND
  
 Use, reproduction and disclosure by the US Government is
 subject to restrictions as set forth in subparagraphs (a)
 and (c) of the Commercial Computer Software - Restricted
 Rights clause in FAR 52.227-19.
  
 Gaussian, Inc.
 340 Quinnipiac St., Bldg. 40, Wallingford CT 06492
  
  
 ---------------------------------------------------------------
 Warning -- This program may not be used in any manner that
 competes with the business of Gaussian, Inc. or will provide
 assistance to any competitor of Gaussian, Inc.  The licensee
 of this program is prohibited from giving any competitor of
 Gaussian, Inc. access to this program.  By using this program,
 the user acknowledges that Gaussian, Inc. is engaged in the
 business of creating and licensing software in the field of
 computational chemistry and represents and warrants to the
 licensee that it is not a competitor of Gaussian, Inc. and that
 it will not use this program in any manner prohibited above.
 ---------------------------------------------------------------
  

 Cite this work as:
 Gaussian 03, Revision E.01,
 M. J. Frisch, G. W. Trucks, H. B. Schlegel, G. E. Scuseria, 
 M. A. Robb, J. R. Cheeseman, J. A. Montgomery, Jr., T. Vreven, 
 K. N. Kudin, J. C. Burant, J. M. Millam, S. S. Iyengar, J. Tomasi, 
 V. Barone, B. Mennucci, M. Cossi, G. Scalmani, N. Rega, 
 G. A. Petersson, H. Nakatsuji, M. Hada, M. Ehara, K. Toyota, 
 R. Fukuda, J. Hasegawa, M. Ishida, T. Nakajima, Y. Honda, O. Kitao, 
 H. Nakai, M. Klene, X. Li, J. E. Knox, H. P. Hratchian, J. B. Cross, 
 V. Bakken, C. Adamo, J. Jaramillo, R. Gomperts, R. E. Stratmann, 
 O. Yazyev, A. J. Austin, R. Cammi, C. Pomelli, J. W. Ochterski, 
 P. Y. Ayala, K. Morokuma, G. A. Voth, P. Salvador, J. J. Dannenberg, 
 V. G. Zakrzewski, S. Dapprich, A. D. Daniels, M. C. Strain, 
 O. Farkas, D. K. Malick, A. D. Rabuck, K. Raghavachari, 
 J. B. Foresman, J. V. Ortiz, Q. Cui, A. G. Baboul, S. Clifford, 
 J. Cioslowski, B. B. Stefanov, G. Liu, A. Liashenko, P. Piskorz, 
 I. Komaromi, R. L. Martin, D. J. Fox, T. Keith, M. A. Al-Laham, 
 C. Y. Peng, A. Nanayakkara, M. Challacombe, P. M. W. Gill, 
 B. Johnson, W. Chen, M. W. Wong, C. Gonzalez, and J. A. Pople, 
 Gaussian, Inc., Wallingford CT, 2004.
 
 ******************************************
 Gaussian 03:  EM64L-G03RevE.01 11-Sep-2007
                16-Dec-2012 
 ******************************************
 ----------------------------------------------------
 # PM3 Opt=(CalcFC,TS,NoEigenTest,MaxCycle=60) NoSymm
 ----------------------------------------------------
 1/5=1,6=60,10=4,11=1,14=-1,18=20,26=3,38=1/1,3;
 2/9=110,15=1,17=6,18=5,40=1/2;
 3/5=2,11=9,12=1,16=1,25=1,30=1/1;
 4/5=3,11=1,20=7,22=2,24=3,35=1/1,2;
 6/7=2,8=2,9=2,10=2/1;
 7/25=1,30=1/16;
 1/5=1,6=60,10=4,11=1,14=-1,18=20/3(3);
 2/9=110,15=1/2;
 6/7=2,8=2,9=2,10=2/1;
 99//99;
 2/9=110,15=1/2;
 3/5=2,11=9,12=1,16=1,25=1,30=1/1;
 4/5=5,11=1,16=3,20=7,22=1,24=3,35=1/1,2;
 7/30=1/16;
 1/5=1,6=60,11=1,14=-1,18=20/3(-4);
 2/9=110,15=1/2;
 6/7=2,8=2,9=2,10=2/1;
 99//99;
 -------
 produkt
 -------
 Symbolic Z-matrix:
 Charge =  0 Multiplicity = 1
 C                    -2.40555   2.99063   0.67793 
 C                    -2.89354   2.91928  -0.62597 
 C                    -2.6522    1.84213  -1.47835 
 C                    -2.12311   0.61333  -1.12968 
 N                    -2.46254  -0.07051   0.05527 
 C                    -1.99475  -1.39922   0.28278 
 O                    -1.51517  -2.15222  -0.54927 
 O                    -2.24023  -1.76299   1.57352 
 C                    -1.78387  -3.03354   1.99201 
 H                    -0.70065  -3.13605   1.86295 
 H                    -2.30143  -3.84029   1.46272 
 H                    -2.04872  -3.03456   3.05221 
 H                    -2.6681    0.49064   0.85877 
 C                    -0.50431   3.02541   0.38776 
 C                    -0.08875   1.95861  -0.40774 
 H                    -0.21019   3.02909   1.44386 
 H                    -0.46212   4.02443  -0.05936 
 C                     0.60595   0.80329   0.17015 
 H                     0.01654   2.1152   -1.49333 
 O                     0.56786   0.50161   1.36151 
 N                     1.44574   0.01179  -0.70018 
 H                    -1.63457  -0.00838  -1.90906 
 H                    -2.43725   2.125     1.34957 
 H                    -2.59438   3.91213   1.23656 
 H                    -3.30862   3.82944  -1.07803 
 H                    -2.72978   2.04525  -2.55537 
 C                     1.03372  -0.06072  -2.12035 
 H                     1.77957  -0.61508  -2.70265 
 H                     0.9609    0.96249  -2.52374 
 H                     0.04612  -0.54227  -2.25515 
 C                     1.97904  -1.26048  -0.16485 
 H                     2.5056   -1.0695    0.77939 
 H                     2.69905  -1.68128  -0.87904 
 H                     1.19334  -2.00857   0.0216 
 

 GradGradGradGradGradGradGradGradGradGradGradGradGradGradGradGradGradGrad
 Berny optimization.
 Initialization pass.
                           ----------------------------
                           !    Initial Parameters    !
                           ! (Angstroms and Degrees)  !
 --------------------------                            --------------------------
 ! Name  Definition              Value          Derivative Info.                !
 --------------------------------------------------------------------------------
 ! R1    R(1,2)                  1.394          calculate D2E/DX2 analytically  !
 ! R2    R(1,14)                 1.9236         calculate D2E/DX2 analytically  !
 ! R3    R(1,16)                 2.3255         calculate D2E/DX2 analytically  !
 ! R4    R(1,17)                 2.3215         calculate D2E/DX2 analytically  !
 ! R5    R(1,23)                 1.0961         calculate D2E/DX2 analytically  !
 ! R6    R(1,24)                 1.094          calculate D2E/DX2 analytically  !
 ! R7    R(2,3)                  1.3947         calculate D2E/DX2 analytically  !
 ! R8    R(2,25)                 1.0977         calculate D2E/DX2 analytically  !
 ! R9    R(3,4)                  1.3825         calculate D2E/DX2 analytically  !
 ! R10   R(3,26)                 1.0987         calculate D2E/DX2 analytically  !
 ! R11   R(4,5)                  1.4096         calculate D2E/DX2 analytically  !
 ! R12   R(4,22)                 1.1102         calculate D2E/DX2 analytically  !
 ! R13   R(5,6)                  1.4269         calculate D2E/DX2 analytically  !
 ! R14   R(5,13)                 1.0014         calculate D2E/DX2 analytically  !
 ! R15   R(6,7)                  1.2204         calculate D2E/DX2 analytically  !
 ! R16   R(6,8)                  1.3633         calculate D2E/DX2 analytically  !
 ! R17   R(8,9)                  1.4134         calculate D2E/DX2 analytically  !
 ! R18   R(9,10)                 1.0957         calculate D2E/DX2 analytically  !
 ! R19   R(9,11)                 1.0949         calculate D2E/DX2 analytically  !
 ! R20   R(9,12)                 1.0928         calculate D2E/DX2 analytically  !
 ! R21   R(14,15)                1.3941         calculate D2E/DX2 analytically  !
 ! R22   R(14,16)                1.0963         calculate D2E/DX2 analytically  !
 ! R23   R(14,17)                1.0953         calculate D2E/DX2 analytically  !
 ! R24   R(15,18)                1.4667         calculate D2E/DX2 analytically  !
 ! R25   R(15,19)                1.1019         calculate D2E/DX2 analytically  !
 ! R26   R(18,20)                1.2296         calculate D2E/DX2 analytically  !
 ! R27   R(18,21)                1.4454         calculate D2E/DX2 analytically  !
 ! R28   R(21,27)                1.4805         calculate D2E/DX2 analytically  !
 ! R29   R(21,31)                1.4797         calculate D2E/DX2 analytically  !
 ! R30   R(27,28)                1.0967         calculate D2E/DX2 analytically  !
 ! R31   R(27,29)                1.1023         calculate D2E/DX2 analytically  !
 ! R32   R(27,30)                1.107          calculate D2E/DX2 analytically  !
 ! R33   R(31,32)                1.0979         calculate D2E/DX2 analytically  !
 ! R34   R(31,33)                1.098          calculate D2E/DX2 analytically  !
 ! R35   R(31,34)                1.1008         calculate D2E/DX2 analytically  !
 ! A1    A(2,1,14)             101.8776         calculate D2E/DX2 analytically  !
 ! A2    A(2,1,16)             129.7461         calculate D2E/DX2 analytically  !
 ! A3    A(2,1,17)              91.0764         calculate D2E/DX2 analytically  !
 ! A4    A(2,1,23)             121.506          calculate D2E/DX2 analytically  !
 ! A5    A(2,1,24)             117.4058         calculate D2E/DX2 analytically  !
 ! A6    A(14,1,23)             97.7756         calculate D2E/DX2 analytically  !
 ! A7    A(14,1,24)            103.4382         calculate D2E/DX2 analytically  !
 ! A8    A(16,1,17)             46.1258         calculate D2E/DX2 analytically  !
 ! A9    A(16,1,23)             80.7081         calculate D2E/DX2 analytically  !
 ! A10   A(16,1,24)             88.9017         calculate D2E/DX2 analytically  !
 ! A11   A(17,1,23)            124.7854         calculate D2E/DX2 analytically  !
 ! A12   A(17,1,24)             86.076          calculate D2E/DX2 analytically  !
 ! A13   A(23,1,24)            110.3238         calculate D2E/DX2 analytically  !
 ! A14   A(1,2,3)              123.409          calculate D2E/DX2 analytically  !
 ! A15   A(1,2,25)             118.366          calculate D2E/DX2 analytically  !
 ! A16   A(3,2,25)             117.0075         calculate D2E/DX2 analytically  !
 ! A17   A(2,3,4)              126.7649         calculate D2E/DX2 analytically  !
 ! A18   A(2,3,26)             116.3652         calculate D2E/DX2 analytically  !
 ! A19   A(4,3,26)             116.0111         calculate D2E/DX2 analytically  !
 ! A20   A(3,4,5)              123.4384         calculate D2E/DX2 analytically  !
 ! A21   A(3,4,22)             119.2787         calculate D2E/DX2 analytically  !
 ! A22   A(5,4,22)             115.1132         calculate D2E/DX2 analytically  !
 ! A23   A(4,5,6)              120.4534         calculate D2E/DX2 analytically  !
 ! A24   A(4,5,13)             116.8774         calculate D2E/DX2 analytically  !
 ! A25   A(6,5,13)             117.4635         calculate D2E/DX2 analytically  !
 ! A26   A(5,6,7)              126.4907         calculate D2E/DX2 analytically  !
 ! A27   A(5,6,8)              109.9005         calculate D2E/DX2 analytically  !
 ! A28   A(7,6,8)              123.4787         calculate D2E/DX2 analytically  !
 ! A29   A(6,8,9)              117.5198         calculate D2E/DX2 analytically  !
 ! A30   A(8,9,10)             111.6188         calculate D2E/DX2 analytically  !
 ! A31   A(8,9,11)             111.5054         calculate D2E/DX2 analytically  !
 ! A32   A(8,9,12)             102.1137         calculate D2E/DX2 analytically  !
 ! A33   A(10,9,11)            109.9639         calculate D2E/DX2 analytically  !
 ! A34   A(10,9,12)            110.7202         calculate D2E/DX2 analytically  !
 ! A35   A(11,9,12)            110.7162         calculate D2E/DX2 analytically  !
 ! A36   A(1,14,15)            111.5221         calculate D2E/DX2 analytically  !
 ! A37   A(15,14,16)           118.1831         calculate D2E/DX2 analytically  !
 ! A38   A(15,14,17)           116.9704         calculate D2E/DX2 analytically  !
 ! A39   A(16,14,17)           112.3239         calculate D2E/DX2 analytically  !
 ! A40   A(14,15,18)           121.2723         calculate D2E/DX2 analytically  !
 ! A41   A(14,15,19)           118.8102         calculate D2E/DX2 analytically  !
 ! A42   A(18,15,19)           117.0563         calculate D2E/DX2 analytically  !
 ! A43   A(15,18,20)           124.0796         calculate D2E/DX2 analytically  !
 ! A44   A(15,18,21)           117.9876         calculate D2E/DX2 analytically  !
 ! A45   A(20,18,21)           117.8445         calculate D2E/DX2 analytically  !
 ! A46   A(18,21,27)           116.2775         calculate D2E/DX2 analytically  !
 ! A47   A(18,21,31)           117.5409         calculate D2E/DX2 analytically  !
 ! A48   A(27,21,31)           113.9049         calculate D2E/DX2 analytically  !
 ! A49   A(21,27,28)           110.1707         calculate D2E/DX2 analytically  !
 ! A50   A(21,27,29)           108.9036         calculate D2E/DX2 analytically  !
 ! A51   A(21,27,30)           112.7303         calculate D2E/DX2 analytically  !
 ! A52   A(28,27,29)           108.6542         calculate D2E/DX2 analytically  !
 ! A53   A(28,27,30)           108.7961         calculate D2E/DX2 analytically  !
 ! A54   A(29,27,30)           107.4762         calculate D2E/DX2 analytically  !
 ! A55   A(21,31,32)           109.5384         calculate D2E/DX2 analytically  !
 ! A56   A(21,31,33)           109.3012         calculate D2E/DX2 analytically  !
 ! A57   A(21,31,34)           112.8516         calculate D2E/DX2 analytically  !
 ! A58   A(32,31,33)           108.1546         calculate D2E/DX2 analytically  !
 ! A59   A(32,31,34)           108.3538         calculate D2E/DX2 analytically  !
 ! A60   A(33,31,34)           108.5281         calculate D2E/DX2 analytically  !
 ! D1    D(14,1,2,3)            63.6485         calculate D2E/DX2 analytically  !
 ! D2    D(14,1,2,25)         -103.3505         calculate D2E/DX2 analytically  !
 ! D3    D(16,1,2,3)            61.9983         calculate D2E/DX2 analytically  !
 ! D4    D(16,1,2,25)         -105.0007         calculate D2E/DX2 analytically  !
 ! D5    D(17,1,2,3)            89.6309         calculate D2E/DX2 analytically  !
 ! D6    D(17,1,2,25)          -77.3681         calculate D2E/DX2 analytically  !
 ! D7    D(23,1,2,3)           -43.2739         calculate D2E/DX2 analytically  !
 ! D8    D(23,1,2,25)          149.7271         calculate D2E/DX2 analytically  !
 ! D9    D(24,1,2,3)           175.7688         calculate D2E/DX2 analytically  !
 ! D10   D(24,1,2,25)            8.7698         calculate D2E/DX2 analytically  !
 ! D11   D(2,1,14,15)          -53.3011         calculate D2E/DX2 analytically  !
 ! D12   D(23,1,14,15)          71.2887         calculate D2E/DX2 analytically  !
 ! D13   D(24,1,14,15)        -175.5674         calculate D2E/DX2 analytically  !
 ! D14   D(1,2,3,4)             12.0797         calculate D2E/DX2 analytically  !
 ! D15   D(1,2,3,26)          -156.8226         calculate D2E/DX2 analytically  !
 ! D16   D(25,2,3,4)           179.2422         calculate D2E/DX2 analytically  !
 ! D17   D(25,2,3,26)           10.3399         calculate D2E/DX2 analytically  !
 ! D18   D(2,3,4,5)             40.2036         calculate D2E/DX2 analytically  !
 ! D19   D(2,3,4,22)          -157.3716         calculate D2E/DX2 analytically  !
 ! D20   D(26,3,4,5)          -150.86           calculate D2E/DX2 analytically  !
 ! D21   D(26,3,4,22)           11.5648         calculate D2E/DX2 analytically  !
 ! D22   D(3,4,5,6)            173.0088         calculate D2E/DX2 analytically  !
 ! D23   D(3,4,5,13)           -33.1244         calculate D2E/DX2 analytically  !
 ! D24   D(22,4,5,6)             9.9193         calculate D2E/DX2 analytically  !
 ! D25   D(22,4,5,13)          163.7862         calculate D2E/DX2 analytically  !
 ! D26   D(4,5,6,7)            -14.8679         calculate D2E/DX2 analytically  !
 ! D27   D(4,5,6,8)            169.1863         calculate D2E/DX2 analytically  !
 ! D28   D(13,5,6,7)          -168.5867         calculate D2E/DX2 analytically  !
 ! D29   D(13,5,6,8)            15.4675         calculate D2E/DX2 analytically  !
 ! D30   D(5,6,8,9)           -177.1377         calculate D2E/DX2 analytically  !
 ! D31   D(7,6,8,9)              6.7698         calculate D2E/DX2 analytically  !
 ! D32   D(6,8,9,10)            58.1716         calculate D2E/DX2 analytically  !
 ! D33   D(6,8,9,11)           -65.2569         calculate D2E/DX2 analytically  !
 ! D34   D(6,8,9,12)           176.4855         calculate D2E/DX2 analytically  !
 ! D35   D(1,14,15,18)        -104.8682         calculate D2E/DX2 analytically  !
 ! D36   D(1,14,15,19)          94.8442         calculate D2E/DX2 analytically  !
 ! D37   D(16,14,15,18)          6.0807         calculate D2E/DX2 analytically  !
 ! D38   D(16,14,15,19)       -154.207          calculate D2E/DX2 analytically  !
 ! D39   D(17,14,15,18)        145.2096         calculate D2E/DX2 analytically  !
 ! D40   D(17,14,15,19)        -15.0781         calculate D2E/DX2 analytically  !
 ! D41   D(14,15,18,20)         19.9952         calculate D2E/DX2 analytically  !
 ! D42   D(14,15,18,21)       -156.5084         calculate D2E/DX2 analytically  !
 ! D43   D(19,15,18,20)       -179.3869         calculate D2E/DX2 analytically  !
 ! D44   D(19,15,18,21)          4.1095         calculate D2E/DX2 analytically  !
 ! D45   D(15,18,21,27)        -30.967          calculate D2E/DX2 analytically  !
 ! D46   D(15,18,21,31)       -171.0657         calculate D2E/DX2 analytically  !
 ! D47   D(20,18,21,27)        152.3079         calculate D2E/DX2 analytically  !
 ! D48   D(20,18,21,31)         12.2091         calculate D2E/DX2 analytically  !
 ! D49   D(18,21,27,28)        175.4489         calculate D2E/DX2 analytically  !
 ! D50   D(18,21,27,29)         56.3724         calculate D2E/DX2 analytically  !
 ! D51   D(18,21,27,30)        -62.812          calculate D2E/DX2 analytically  !
 ! D52   D(31,21,27,28)        -43.024          calculate D2E/DX2 analytically  !
 ! D53   D(31,21,27,29)       -162.1005         calculate D2E/DX2 analytically  !
 ! D54   D(31,21,27,30)         78.7151         calculate D2E/DX2 analytically  !
 ! D55   D(18,21,31,32)        -54.1749         calculate D2E/DX2 analytically  !
 ! D56   D(18,21,31,33)       -172.5077         calculate D2E/DX2 analytically  !
 ! D57   D(18,21,31,34)         66.6311         calculate D2E/DX2 analytically  !
 ! D58   D(27,21,31,32)        164.8123         calculate D2E/DX2 analytically  !
 ! D59   D(27,21,31,33)         46.4794         calculate D2E/DX2 analytically  !
 ! D60   D(27,21,31,34)        -74.3818         calculate D2E/DX2 analytically  !
 --------------------------------------------------------------------------------
 Trust Radius=3.00D-01 FncErr=1.00D-07 GrdErr=1.00D-06
 Number of steps in this run=  60 maximum allowed number of steps= 204.
 Search for a saddle point of order  1.
 GradGradGradGradGradGradGradGradGradGradGradGradGradGradGradGradGradGrad

                          Input orientation:                          
 ---------------------------------------------------------------------
 Center     Atomic     Atomic              Coordinates (Angstroms)
 Number     Number      Type              X           Y           Z
 ---------------------------------------------------------------------
    1          6             0       -2.405548    2.990629    0.677926
    2          6             0       -2.893538    2.919277   -0.625967
    3          6             0       -2.652199    1.842125   -1.478354
    4          6             0       -2.123115    0.613332   -1.129676
    5          7             0       -2.462541   -0.070512    0.055271
    6          6             0       -1.994752   -1.399220    0.282775
    7          8             0       -1.515172   -2.152224   -0.549271
    8          8             0       -2.240225   -1.762986    1.573518
    9          6             0       -1.783872   -3.033538    1.992014
   10          1             0       -0.700646   -3.136053    1.862945
   11          1             0       -2.301427   -3.840285    1.462723
   12          1             0       -2.048723   -3.034562    3.052207
   13          1             0       -2.668096    0.490642    0.858766
   14          6             0       -0.504305    3.025405    0.387759
   15          6             0       -0.088746    1.958605   -0.407739
   16          1             0       -0.210192    3.029088    1.443863
   17          1             0       -0.462124    4.024427   -0.059358
   18          6             0        0.605951    0.803290    0.170148
   19          1             0        0.016535    2.115202   -1.493328
   20          8             0        0.567856    0.501612    1.361508
   21          7             0        1.445736    0.011786   -0.700176
   22          1             0       -1.634565   -0.008384   -1.909059
   23          1             0       -2.437245    2.125002    1.349566
   24          1             0       -2.594379    3.912133    1.236556
   25          1             0       -3.308617    3.829443   -1.078030
   26          1             0       -2.729783    2.045251   -2.555366
   27          6             0        1.033716   -0.060717   -2.120347
   28          1             0        1.779566   -0.615082   -2.702650
   29          1             0        0.960897    0.962486   -2.523736
   30          1             0        0.046120   -0.542266   -2.255145
   31          6             0        1.979036   -1.260481   -0.164848
   32          1             0        2.505601   -1.069505    0.779388
   33          1             0        2.699045   -1.681282   -0.879036
   34          1             0        1.193336   -2.008575    0.021595
 ---------------------------------------------------------------------
                    Distance matrix (angstroms):
                    1          2          3          4          5
     1  C    0.000000
     2  C    1.394045   0.000000
     3  C    2.455492   1.394656   0.000000
     4  C    2.999789   2.482873   1.382548   0.000000
     5  N    3.124345   3.096560   2.458893   1.409593   0.000000
     6  C    4.426700   4.503670   3.747016   2.462085   1.426902
     7  O    5.361690   5.256034   4.255684   2.890461   2.365693
     8  O    4.840069   5.214225   4.741357   3.601091   2.284506
     9  C    6.197088   6.597059   6.047275   4.812452   3.604315
    10  H    6.468941   6.904381   6.305164   5.003707   3.971083
    11  H    6.876637   7.099641   6.408023   5.156261   4.027166
    12  H    6.485943   7.049175   6.683730   5.549848   4.235382
    13  H    2.520232   2.855438   2.699794   2.065420   1.001374
    14  C    1.923573   2.597564   3.081554   3.277385   3.678306
    15  C    2.758861   2.972772   2.780481   2.543543   3.156992
    16  H    2.325452   3.390664   3.988939   4.014755   4.075388
    17  H    2.321470   2.730234   3.401826   3.942086   4.558874
    18  C    3.756517   4.166248   3.796351   3.028767   3.192549
    19  H    3.368561   3.141238   2.682711   2.639310   3.649839
    20  O    3.937464   4.666520   4.497838   3.668761   3.349162
    21  N    5.060144   5.223821   4.555082   3.644588   3.981470
    22  H    4.034970   3.435482   2.155335   1.110248   2.132603
    23  H    1.096091   2.177569   2.850150   2.920696   2.548749
    24  H    1.094027   2.131725   3.414530   4.086959   4.156233
    25  H    2.145349   1.097749   2.130863   3.428039   4.148477
    26  H    3.384235   2.124457   1.098742   2.109746   3.370949
    27  C    5.382340   5.151394   4.197491   3.376589   4.117915
    28  H    6.476467   6.216286   5.213186   4.383397   5.089023
    29  H    5.069216   4.720935   3.862778   3.402417   4.408888
    30  H    5.205279   4.824737   3.683701   2.703270   3.442957
    31  C    6.164964   6.436224   5.727111   4.611910   4.603486
    32  H    6.372940   6.858287   6.338603   5.282185   5.119059
    33  H    7.092796   7.246114   6.435013   5.346148   5.487211
    34  H    6.194738   6.434718   5.644987   4.381629   4.137953
                    6          7          8          9         10
     6  C    0.000000
     7  O    1.220374   0.000000
     8  O    1.363305   2.276717   0.000000
     9  C    2.374229   2.703154   1.413400   0.000000
    10  H    2.681089   2.729498   2.083119   1.095695   0.000000
    11  H    2.728576   2.741508   2.081152   1.094921   1.794051
    12  H    3.216677   3.746177   1.959617   1.092775   1.800543
    13  H    2.087280   3.208823   2.402662   3.806041   4.246428
    14  C    4.670092   5.357959   5.229544   6.397008   6.338635
    15  C    3.922328   4.353578   4.733337   5.792561   5.611236
    16  H    4.913521   5.702767   5.205941   6.287477   6.198801
    17  H    5.646410   6.284898   6.270732   7.467932   7.417858
    18  C    3.409896   3.708341   4.081169   4.873571   4.482319
    19  H    4.421649   4.631230   5.434966   6.472913   6.273324
    20  O    3.368054   3.877232   3.613678   4.292487   3.884989
    21  N    3.846308   3.670516   4.680364   5.191556   4.591888
    22  H    2.620743   2.541521   3.946365   4.938848   4.988239
    23  H    3.708636   4.769745   3.899413   5.239291   5.563994
    24  H    5.429523   6.413290   5.696134   7.033490   7.324992
    25  H    5.560301   6.267086   6.280719   7.671410   7.998061
    26  H    4.523239   4.808169   5.638264   6.882406   7.105264
    27  C    4.091235   3.652330   5.221211   5.804135   5.322811
    28  H    4.875768   4.225535   5.980135   6.370784   5.775067
    29  H    4.710628   4.441942   5.870508   6.625252   6.229102
    30  H    3.367576   2.817730   4.623439   5.252967   4.923825
    31  C    4.001326   3.626634   4.590925   4.685644   3.848430
    32  H    4.539660   4.370839   4.861525   4.871085   3.965443
    33  H    4.843665   4.253252   5.515259   5.492547   4.603555
    34  H    3.256291   2.771739   3.775993   3.714414   2.872098
                   11         12         13         14         15
    11  H    0.000000
    12  H    1.799863   0.000000
    13  H    4.388182   4.197841   0.000000
    14  C    7.177945   6.797625   3.365838   0.000000
    15  C    6.482415   6.383138   3.226763   1.394119   0.000000
    16  H    7.180662   6.537187   3.581527   1.096299   2.142221
    17  H    8.219091   7.875815   4.265783   1.095325   2.128004
    18  C    5.629066   5.484767   3.360257   2.493555   1.466734
    19  H    7.041236   7.172674   3.921579   2.153656   1.101867
    20  O    5.205295   4.712693   3.274791   2.909854   2.384154
    21  N    5.792911   5.964215   4.425293   3.750755   2.496049
    22  H    5.147532   5.826100   2.996343   3.969476   2.917630
    23  H    5.967906   5.447113   1.722007   2.339242   2.937900
    24  H    7.761247   7.200757   3.443074   2.423871   3.577454
    25  H    8.142149   8.109301   3.912677   3.264840   3.783767
    26  H    7.139192   7.596922   3.751921   3.817779   3.405126
    27  C    6.184392   6.715691   4.783568   4.263831   2.875867
    28  H    6.663841   7.323118   5.804137   5.293377   3.921871
    29  H    7.042814   7.491685   4.983327   3.857364   2.563483
    30  H    5.496403   6.226387   4.257970   4.473945   3.112146
    31  C    5.256114   5.451573   5.070508   4.984092   3.833697
    32  H    5.590321   5.456100   5.404396   5.097175   4.160452
    33  H    5.928731   6.310891   6.045115   5.832591   4.608978
    34  H    4.200640   4.555020   4.675211   5.325131   4.191250
                   16         17         18         19         20
    16  H    0.000000
    17  H    1.820396   0.000000
    18  C    2.691211   3.401350   0.000000
    19  H    3.084426   2.435267   2.199017   0.000000
    20  O    2.645803   3.935727   1.229553   3.325314   0.000000
    21  N    4.055011   4.489083   1.445400   2.663844   2.293718
    22  H    4.743117   4.589071   3.162567   2.721871   3.975847
    23  H    2.405416   3.081231   3.521220   3.755420   3.415578
    24  H    2.550900   2.497702   4.587400   4.183073   4.652633
    25  H    4.074402   3.029560   5.102881   3.764005   5.661523
    26  H    4.828054   3.910175   4.483081   2.945349   5.347817
    27  C    4.878298   4.813898   2.485127   2.482425   3.557605
    28  H    5.867937   5.791132   3.412055   3.467735   4.385502
    29  H    4.624298   4.180147   2.721827   1.811716   3.932176
    30  H    5.148099   5.092590   2.829484   2.764666   3.800272
    31  C    5.077507   5.822426   2.501347   4.124501   2.725099
    32  H    4.961403   5.954749   2.736276   4.637138   2.561665
    33  H    6.003924   6.574190   3.413931   4.688977   3.785106
    34  H    5.419482   6.256534   2.876399   4.548119   2.913354
                   21         22         23         24         25
    21  N    0.000000
    22  H    3.309087   0.000000
    23  H    4.872850   3.976716   0.000000
    24  H    5.940216   5.117283   1.797582   0.000000
    25  H    6.109104   4.268721   3.091542   2.423692   0.000000
    26  H    5.001167   2.415498   3.916686   4.228742   2.387658
    27  C    1.480508   2.677145   5.372638   6.341562   5.922468
    28  H    2.124690   3.557269   6.458329   7.425929   6.948583
    29  H    2.112882   2.838457   5.282166   5.956526   5.342121
    30  H    2.164215   1.797083   5.125950   6.245469   5.634865
    31  C    1.479746   4.203348   5.767017   7.045282   7.395979
    32  H    2.116982   5.049228   5.912842   7.143915   7.826546
    33  H    2.114061   4.758121   6.770224   7.986386   8.154734
    34  H    2.160212   3.965503   5.659601   7.132860   7.453805
                   26         27         28         29         30
    26  H    0.000000
    27  C    4.334544   0.000000
    28  H    5.237680   1.096672   0.000000
    29  H    3.846362   1.102257   1.786323   0.000000
    30  H    3.806706   1.106980   1.791758   1.781358   0.000000
    31  C    6.230202   2.481338   2.626170   3.397432   2.936212
    32  H    6.944893   3.404785   3.585835   4.174413   3.941499
    33  H    6.794800   2.634465   2.303865   3.565909   3.198288
    34  H    6.202024   2.899577   3.115606   3.919176   2.941039
                   31         32         33         34
    31  C    0.000000
    32  H    1.097873   0.000000
    33  H    1.097976   1.778219   0.000000
    34  H    1.100786   1.782734   1.784774   0.000000
 Symmetry turned off by external request.
 Stoichiometry    C11H18N2O3
 Framework group  C1[X(C11H18N2O3)]
 Deg. of freedom    96
 Full point group                 C1
 Rotational constants (GHZ):      0.6102184      0.4656116      0.3521239
 Standard basis: VSTO-3G (5D, 7F)
 Integral buffers will be    131072 words long.
 Raffenetti 1 integral format.
 Two-electron integral symmetry is turned off.
    82 basis functions,   246 primitive gaussians,    82 cartesian basis functions
    45 alpha electrons       45 beta electrons
       nuclear repulsion energy       647.0648203075 Hartrees.
 NAtoms=   34 NActive=   34 NUniq=   34 SFac= 7.50D-01 NAtFMM=   80 NAOKFM=F Big=F
 Simple Huckel Guess.
 RHF-PM3 calculation of energy, first and second derivatives.
 MO and density RWFs will be updated without deorthogonalization.
 Numerical evaluation of force-constants.
 Step-Size= 0.018897 bohr.
 Closed-shell calculation:      45 occupied levels.
 NNHCO=    0.
 References:
  H: (PM3): J. J. P. STEWART, J. COMP. CHEM.     10, 209 (1989).
  C: (PM3): J. J. P. STEWART, J. COMP. CHEM.     10, 209 (1989).
  N: (PM3): J. J. P. STEWART, J. COMP. CHEM.     10, 209 (1989).
  O: (PM3): J. J. P. STEWART, J. COMP. CHEM.     10, 209 (1989).
 Ext34=T Pulay=F Camp-King=F BShift= 0.00D+00
 It=  1 PL= 0.103D+01 DiagD=T ESCF=     21.087300 Diff= 0.168D+02 RMSDP= 0.164D+00.
 It=  2 PL= 0.942D-01 DiagD=T ESCF=     -0.029368 Diff=-0.211D+02 RMSDP= 0.589D-02.
 It=  3 PL= 0.309D-01 DiagD=F ESCF=     -1.646584 Diff=-0.162D+01 RMSDP= 0.361D-02.
 It=  4 PL= 0.567D-02 DiagD=F ESCF=     -2.052613 Diff=-0.406D+00 RMSDP= 0.713D-03.
 It=  5 PL= 0.271D-02 DiagD=F ESCF=     -1.942963 Diff= 0.110D+00 RMSDP= 0.432D-03.
 It=  6 PL= 0.156D-02 DiagD=F ESCF=     -1.948508 Diff=-0.555D-02 RMSDP= 0.722D-03.
 It=  7 PL= 0.467D-03 DiagD=F ESCF=     -1.958068 Diff=-0.956D-02 RMSDP= 0.903D-04.
 It=  8 PL= 0.282D-03 DiagD=F ESCF=     -1.952875 Diff= 0.519D-02 RMSDP= 0.625D-04.
 It=  9 PL= 0.195D-03 DiagD=F ESCF=     -1.952980 Diff=-0.105D-03 RMSDP= 0.126D-03.
 It= 10 PL= 0.445D-04 DiagD=F ESCF=     -1.953248 Diff=-0.268D-03 RMSDP= 0.149D-04.
 It= 11 PL= 0.349D-04 DiagD=F ESCF=     -1.953099 Diff= 0.149D-03 RMSDP= 0.102D-04.
 It= 12 PL= 0.249D-04 DiagD=F ESCF=     -1.953102 Diff=-0.272D-05 RMSDP= 0.220D-04.
 It= 13 PL= 0.546D-05 DiagD=F ESCF=     -1.953110 Diff=-0.794D-05 RMSDP= 0.208D-05.
 It= 14 PL= 0.488D-05 DiagD=F ESCF=     -1.953105 Diff= 0.473D-05 RMSDP= 0.139D-05.
 It= 15 PL= 0.304D-05 DiagD=F ESCF=     -1.953105 Diff=-0.510D-07 RMSDP= 0.287D-05.
 It= 16 PL= 0.665D-06 DiagD=F ESCF=     -1.953105 Diff=-0.138D-06 RMSDP= 0.319D-06.
 4-point extrapolation.
 It= 17 PL= 0.635D-06 DiagD=F ESCF=     -1.953105 Diff= 0.780D-07 RMSDP= 0.217D-06.
 It= 18 PL= 0.517D-06 DiagD=F ESCF=     -1.953105 Diff= 0.486D-08 RMSDP= 0.759D-06.
 It= 19 PL= 0.149D-06 DiagD=F ESCF=     -1.953105 Diff=-0.149D-07 RMSDP= 0.453D-07.
 SE2nd ... symmetry will not be used.
 SE2nd: IAtom=  1 IXYZ=1 IS=1.
 SE2nd: IAtom=  1 IXYZ=1 IS=2.
 SE2nd: IAtom=  1 IXYZ=2 IS=1.
 SE2nd: IAtom=  1 IXYZ=2 IS=2.
 SE2nd: IAtom=  1 IXYZ=3 IS=1.
 SE2nd: IAtom=  1 IXYZ=3 IS=2.
 SE2nd: IAtom=  2 IXYZ=1 IS=1.
 SE2nd: IAtom=  2 IXYZ=1 IS=2.
 SE2nd: IAtom=  2 IXYZ=2 IS=1.
 SE2nd: IAtom=  2 IXYZ=2 IS=2.
 SE2nd: IAtom=  2 IXYZ=3 IS=1.
 SE2nd: IAtom=  2 IXYZ=3 IS=2.
 SE2nd: IAtom=  3 IXYZ=1 IS=1.
 SE2nd: IAtom=  3 IXYZ=1 IS=2.
 SE2nd: IAtom=  3 IXYZ=2 IS=1.
 SE2nd: IAtom=  3 IXYZ=2 IS=2.
 SE2nd: IAtom=  3 IXYZ=3 IS=1.
 SE2nd: IAtom=  3 IXYZ=3 IS=2.
 SE2nd: IAtom=  4 IXYZ=1 IS=1.
 SE2nd: IAtom=  4 IXYZ=1 IS=2.
 SE2nd: IAtom=  4 IXYZ=2 IS=1.
 SE2nd: IAtom=  4 IXYZ=2 IS=2.
 SE2nd: IAtom=  4 IXYZ=3 IS=1.
 SE2nd: IAtom=  4 IXYZ=3 IS=2.
 SE2nd: IAtom=  5 IXYZ=1 IS=1.
 SE2nd: IAtom=  5 IXYZ=1 IS=2.
 SE2nd: IAtom=  5 IXYZ=2 IS=1.
 SE2nd: IAtom=  5 IXYZ=2 IS=2.
 SE2nd: IAtom=  5 IXYZ=3 IS=1.
 SE2nd: IAtom=  5 IXYZ=3 IS=2.
 SE2nd: IAtom=  6 IXYZ=1 IS=1.
 SE2nd: IAtom=  6 IXYZ=1 IS=2.
 SE2nd: IAtom=  6 IXYZ=2 IS=1.
 SE2nd: IAtom=  6 IXYZ=2 IS=2.
 SE2nd: IAtom=  6 IXYZ=3 IS=1.
 SE2nd: IAtom=  6 IXYZ=3 IS=2.
 SE2nd: IAtom=  7 IXYZ=1 IS=1.
 SE2nd: IAtom=  7 IXYZ=1 IS=2.
 SE2nd: IAtom=  7 IXYZ=2 IS=1.
 SE2nd: IAtom=  7 IXYZ=2 IS=2.
 SE2nd: IAtom=  7 IXYZ=3 IS=1.
 SE2nd: IAtom=  7 IXYZ=3 IS=2.
 SE2nd: IAtom=  8 IXYZ=1 IS=1.
 SE2nd: IAtom=  8 IXYZ=1 IS=2.
 SE2nd: IAtom=  8 IXYZ=2 IS=1.
 SE2nd: IAtom=  8 IXYZ=2 IS=2.
 SE2nd: IAtom=  8 IXYZ=3 IS=1.
 SE2nd: IAtom=  8 IXYZ=3 IS=2.
 SE2nd: IAtom=  9 IXYZ=1 IS=1.
 SE2nd: IAtom=  9 IXYZ=1 IS=2.
 SE2nd: IAtom=  9 IXYZ=2 IS=1.
 SE2nd: IAtom=  9 IXYZ=2 IS=2.
 SE2nd: IAtom=  9 IXYZ=3 IS=1.
 SE2nd: IAtom=  9 IXYZ=3 IS=2.
 SE2nd: IAtom= 10 IXYZ=1 IS=1.
 SE2nd: IAtom= 10 IXYZ=1 IS=2.
 SE2nd: IAtom= 10 IXYZ=2 IS=1.
 SE2nd: IAtom= 10 IXYZ=2 IS=2.
 SE2nd: IAtom= 10 IXYZ=3 IS=1.
 SE2nd: IAtom= 10 IXYZ=3 IS=2.
 SE2nd: IAtom= 11 IXYZ=1 IS=1.
 SE2nd: IAtom= 11 IXYZ=1 IS=2.
 SE2nd: IAtom= 11 IXYZ=2 IS=1.
 SE2nd: IAtom= 11 IXYZ=2 IS=2.
 SE2nd: IAtom= 11 IXYZ=3 IS=1.
 SE2nd: IAtom= 11 IXYZ=3 IS=2.
 SE2nd: IAtom= 12 IXYZ=1 IS=1.
 SE2nd: IAtom= 12 IXYZ=1 IS=2.
 SE2nd: IAtom= 12 IXYZ=2 IS=1.
 SE2nd: IAtom= 12 IXYZ=2 IS=2.
 SE2nd: IAtom= 12 IXYZ=3 IS=1.
 SE2nd: IAtom= 12 IXYZ=3 IS=2.
 SE2nd: IAtom= 13 IXYZ=1 IS=1.
 SE2nd: IAtom= 13 IXYZ=1 IS=2.
 SE2nd: IAtom= 13 IXYZ=2 IS=1.
 SE2nd: IAtom= 13 IXYZ=2 IS=2.
 SE2nd: IAtom= 13 IXYZ=3 IS=1.
 SE2nd: IAtom= 13 IXYZ=3 IS=2.
 SE2nd: IAtom= 14 IXYZ=1 IS=1.
 SE2nd: IAtom= 14 IXYZ=1 IS=2.
 SE2nd: IAtom= 14 IXYZ=2 IS=1.
 SE2nd: IAtom= 14 IXYZ=2 IS=2.
 SE2nd: IAtom= 14 IXYZ=3 IS=1.
 SE2nd: IAtom= 14 IXYZ=3 IS=2.
 SE2nd: IAtom= 15 IXYZ=1 IS=1.
 SE2nd: IAtom= 15 IXYZ=1 IS=2.
 SE2nd: IAtom= 15 IXYZ=2 IS=1.
 SE2nd: IAtom= 15 IXYZ=2 IS=2.
 SE2nd: IAtom= 15 IXYZ=3 IS=1.
 SE2nd: IAtom= 15 IXYZ=3 IS=2.
 SE2nd: IAtom= 16 IXYZ=1 IS=1.
 SE2nd: IAtom= 16 IXYZ=1 IS=2.
 SE2nd: IAtom= 16 IXYZ=2 IS=1.
 SE2nd: IAtom= 16 IXYZ=2 IS=2.
 SE2nd: IAtom= 16 IXYZ=3 IS=1.
 SE2nd: IAtom= 16 IXYZ=3 IS=2.
 SE2nd: IAtom= 17 IXYZ=1 IS=1.
 SE2nd: IAtom= 17 IXYZ=1 IS=2.
 SE2nd: IAtom= 17 IXYZ=2 IS=1.
 SE2nd: IAtom= 17 IXYZ=2 IS=2.
 SE2nd: IAtom= 17 IXYZ=3 IS=1.
 SE2nd: IAtom= 17 IXYZ=3 IS=2.
 SE2nd: IAtom= 18 IXYZ=1 IS=1.
 SE2nd: IAtom= 18 IXYZ=1 IS=2.
 SE2nd: IAtom= 18 IXYZ=2 IS=1.
 SE2nd: IAtom= 18 IXYZ=2 IS=2.
 SE2nd: IAtom= 18 IXYZ=3 IS=1.
 SE2nd: IAtom= 18 IXYZ=3 IS=2.
 SE2nd: IAtom= 19 IXYZ=1 IS=1.
 SE2nd: IAtom= 19 IXYZ=1 IS=2.
 SE2nd: IAtom= 19 IXYZ=2 IS=1.
 SE2nd: IAtom= 19 IXYZ=2 IS=2.
 SE2nd: IAtom= 19 IXYZ=3 IS=1.
 SE2nd: IAtom= 19 IXYZ=3 IS=2.
 SE2nd: IAtom= 20 IXYZ=1 IS=1.
 SE2nd: IAtom= 20 IXYZ=1 IS=2.
 SE2nd: IAtom= 20 IXYZ=2 IS=1.
 SE2nd: IAtom= 20 IXYZ=2 IS=2.
 SE2nd: IAtom= 20 IXYZ=3 IS=1.
 SE2nd: IAtom= 20 IXYZ=3 IS=2.
 SE2nd: IAtom= 21 IXYZ=1 IS=1.
 SE2nd: IAtom= 21 IXYZ=1 IS=2.
 SE2nd: IAtom= 21 IXYZ=2 IS=1.
 SE2nd: IAtom= 21 IXYZ=2 IS=2.
 SE2nd: IAtom= 21 IXYZ=3 IS=1.
 SE2nd: IAtom= 21 IXYZ=3 IS=2.
 SE2nd: IAtom= 22 IXYZ=1 IS=1.
 SE2nd: IAtom= 22 IXYZ=1 IS=2.
 SE2nd: IAtom= 22 IXYZ=2 IS=1.
 SE2nd: IAtom= 22 IXYZ=2 IS=2.
 SE2nd: IAtom= 22 IXYZ=3 IS=1.
 SE2nd: IAtom= 22 IXYZ=3 IS=2.
 SE2nd: IAtom= 23 IXYZ=1 IS=1.
 SE2nd: IAtom= 23 IXYZ=1 IS=2.
 SE2nd: IAtom= 23 IXYZ=2 IS=1.
 SE2nd: IAtom= 23 IXYZ=2 IS=2.
 SE2nd: IAtom= 23 IXYZ=3 IS=1.
 SE2nd: IAtom= 23 IXYZ=3 IS=2.
 SE2nd: IAtom= 24 IXYZ=1 IS=1.
 SE2nd: IAtom= 24 IXYZ=1 IS=2.
 SE2nd: IAtom= 24 IXYZ=2 IS=1.
 SE2nd: IAtom= 24 IXYZ=2 IS=2.
 SE2nd: IAtom= 24 IXYZ=3 IS=1.
 SE2nd: IAtom= 24 IXYZ=3 IS=2.
 SE2nd: IAtom= 25 IXYZ=1 IS=1.
 SE2nd: IAtom= 25 IXYZ=1 IS=2.
 SE2nd: IAtom= 25 IXYZ=2 IS=1.
 SE2nd: IAtom= 25 IXYZ=2 IS=2.
 SE2nd: IAtom= 25 IXYZ=3 IS=1.
 SE2nd: IAtom= 25 IXYZ=3 IS=2.
 SE2nd: IAtom= 26 IXYZ=1 IS=1.
 SE2nd: IAtom= 26 IXYZ=1 IS=2.
 SE2nd: IAtom= 26 IXYZ=2 IS=1.
 SE2nd: IAtom= 26 IXYZ=2 IS=2.
 SE2nd: IAtom= 26 IXYZ=3 IS=1.
 SE2nd: IAtom= 26 IXYZ=3 IS=2.
 SE2nd: IAtom= 27 IXYZ=1 IS=1.
 SE2nd: IAtom= 27 IXYZ=1 IS=2.
 SE2nd: IAtom= 27 IXYZ=2 IS=1.
 SE2nd: IAtom= 27 IXYZ=2 IS=2.
 SE2nd: IAtom= 27 IXYZ=3 IS=1.
 SE2nd: IAtom= 27 IXYZ=3 IS=2.
 SE2nd: IAtom= 28 IXYZ=1 IS=1.
 SE2nd: IAtom= 28 IXYZ=1 IS=2.
 SE2nd: IAtom= 28 IXYZ=2 IS=1.
 SE2nd: IAtom= 28 IXYZ=2 IS=2.
 SE2nd: IAtom= 28 IXYZ=3 IS=1.
 SE2nd: IAtom= 28 IXYZ=3 IS=2.
 SE2nd: IAtom= 29 IXYZ=1 IS=1.
 SE2nd: IAtom= 29 IXYZ=1 IS=2.
 SE2nd: IAtom= 29 IXYZ=2 IS=1.
 SE2nd: IAtom= 29 IXYZ=2 IS=2.
 SE2nd: IAtom= 29 IXYZ=3 IS=1.
 SE2nd: IAtom= 29 IXYZ=3 IS=2.
 SE2nd: IAtom= 30 IXYZ=1 IS=1.
 SE2nd: IAtom= 30 IXYZ=1 IS=2.
 SE2nd: IAtom= 30 IXYZ=2 IS=1.
 SE2nd: IAtom= 30 IXYZ=2 IS=2.
 SE2nd: IAtom= 30 IXYZ=3 IS=1.
 SE2nd: IAtom= 30 IXYZ=3 IS=2.
 SE2nd: IAtom= 31 IXYZ=1 IS=1.
 SE2nd: IAtom= 31 IXYZ=1 IS=2.
 SE2nd: IAtom= 31 IXYZ=2 IS=1.
 SE2nd: IAtom= 31 IXYZ=2 IS=2.
 SE2nd: IAtom= 31 IXYZ=3 IS=1.
 SE2nd: IAtom= 31 IXYZ=3 IS=2.
 SE2nd: IAtom= 32 IXYZ=1 IS=1.
 SE2nd: IAtom= 32 IXYZ=1 IS=2.
 SE2nd: IAtom= 32 IXYZ=2 IS=1.
 SE2nd: IAtom= 32 IXYZ=2 IS=2.
 SE2nd: IAtom= 32 IXYZ=3 IS=1.
 SE2nd: IAtom= 32 IXYZ=3 IS=2.
 SE2nd: IAtom= 33 IXYZ=1 IS=1.
 SE2nd: IAtom= 33 IXYZ=1 IS=2.
 SE2nd: IAtom= 33 IXYZ=2 IS=1.
 SE2nd: IAtom= 33 IXYZ=2 IS=2.
 SE2nd: IAtom= 33 IXYZ=3 IS=1.
 SE2nd: IAtom= 33 IXYZ=3 IS=2.
 SE2nd: IAtom= 34 IXYZ=1 IS=1.
 SE2nd: IAtom= 34 IXYZ=1 IS=2.
 SE2nd: IAtom= 34 IXYZ=2 IS=1.
 SE2nd: IAtom= 34 IXYZ=2 IS=2.
 SE2nd: IAtom= 34 IXYZ=3 IS=1.
 SE2nd: IAtom= 34 IXYZ=3 IS=2.
 Maximum difference in off-diagonal FC elements:
 I= 60 J= 53 Difference=    1.8128207869D-04
 Max difference between analytic and numerical forces:
 I= 60 Difference=    1.4909473725D-04
 Energy=   -0.071776697372 NIter=  20.
 Dipole moment=      -0.775278       0.324658      -0.401327

 **********************************************************************

            Population analysis using the SCF density.

 **********************************************************************

 Alpha  occ. eigenvalues --   -1.49423  -1.44554  -1.36096  -1.32809  -1.24923
 Alpha  occ. eigenvalues --   -1.19464  -1.12560  -1.06126  -1.00728  -0.98189
 Alpha  occ. eigenvalues --   -0.89833  -0.84465  -0.77639  -0.76334  -0.73746
 Alpha  occ. eigenvalues --   -0.69225  -0.66759  -0.65828  -0.64108  -0.62937
 Alpha  occ. eigenvalues --   -0.62329  -0.60163  -0.58794  -0.57866  -0.56375
 Alpha  occ. eigenvalues --   -0.55418  -0.53914  -0.53258  -0.52464  -0.50553
 Alpha  occ. eigenvalues --   -0.50324  -0.49756  -0.49370  -0.48953  -0.47832
 Alpha  occ. eigenvalues --   -0.47082  -0.45628  -0.44853  -0.43301  -0.42937
 Alpha  occ. eigenvalues --   -0.42549  -0.38711  -0.35738  -0.33694  -0.30067
 Alpha virt. eigenvalues --   -0.04652   0.00931   0.02876   0.04251   0.05864
 Alpha virt. eigenvalues --    0.07605   0.08587   0.09485   0.10630   0.11583
 Alpha virt. eigenvalues --    0.12077   0.12546   0.12670   0.13411   0.14105
 Alpha virt. eigenvalues --    0.14230   0.14352   0.14420   0.14845   0.14944
 Alpha virt. eigenvalues --    0.15056   0.15257   0.15567   0.15957   0.16420
 Alpha virt. eigenvalues --    0.16881   0.16998   0.17294   0.18754   0.18950
 Alpha virt. eigenvalues --    0.19178   0.19879   0.19989   0.20806   0.22584
 Alpha virt. eigenvalues --    0.25792   0.27765
          Condensed to atoms (all electrons):
              1          2          3          4          5          6
     1  C    4.156051   0.000000   0.000000   0.000000   0.000000   0.000000
     2  C    0.000000   4.062594   0.000000   0.000000   0.000000   0.000000
     3  C    0.000000   0.000000   4.198581   0.000000   0.000000   0.000000
     4  C    0.000000   0.000000   0.000000   4.054062   0.000000   0.000000
     5  N    0.000000   0.000000   0.000000   0.000000   4.898439   0.000000
     6  C    0.000000   0.000000   0.000000   0.000000   0.000000   3.654974
     7  O    0.000000   0.000000   0.000000   0.000000   0.000000   0.000000
     8  O    0.000000   0.000000   0.000000   0.000000   0.000000   0.000000
     9  C    0.000000   0.000000   0.000000   0.000000   0.000000   0.000000
    10  H    0.000000   0.000000   0.000000   0.000000   0.000000   0.000000
    11  H    0.000000   0.000000   0.000000   0.000000   0.000000   0.000000
    12  H    0.000000   0.000000   0.000000   0.000000   0.000000   0.000000
    13  H    0.000000   0.000000   0.000000   0.000000   0.000000   0.000000
    14  C    0.000000   0.000000   0.000000   0.000000   0.000000   0.000000
    15  C    0.000000   0.000000   0.000000   0.000000   0.000000   0.000000
    16  H    0.000000   0.000000   0.000000   0.000000   0.000000   0.000000
    17  H    0.000000   0.000000   0.000000   0.000000   0.000000   0.000000
    18  C    0.000000   0.000000   0.000000   0.000000   0.000000   0.000000
    19  H    0.000000   0.000000   0.000000   0.000000   0.000000   0.000000
    20  O    0.000000   0.000000   0.000000   0.000000   0.000000   0.000000
    21  N    0.000000   0.000000   0.000000   0.000000   0.000000   0.000000
    22  H    0.000000   0.000000   0.000000   0.000000   0.000000   0.000000
    23  H    0.000000   0.000000   0.000000   0.000000   0.000000   0.000000
    24  H    0.000000   0.000000   0.000000   0.000000   0.000000   0.000000
    25  H    0.000000   0.000000   0.000000   0.000000   0.000000   0.000000
    26  H    0.000000   0.000000   0.000000   0.000000   0.000000   0.000000
    27  C    0.000000   0.000000   0.000000   0.000000   0.000000   0.000000
    28  H    0.000000   0.000000   0.000000   0.000000   0.000000   0.000000
    29  H    0.000000   0.000000   0.000000   0.000000   0.000000   0.000000
    30  H    0.000000   0.000000   0.000000   0.000000   0.000000   0.000000
    31  C    0.000000   0.000000   0.000000   0.000000   0.000000   0.000000
    32  H    0.000000   0.000000   0.000000   0.000000   0.000000   0.000000
    33  H    0.000000   0.000000   0.000000   0.000000   0.000000   0.000000
    34  H    0.000000   0.000000   0.000000   0.000000   0.000000   0.000000
              7          8          9         10         11         12
     1  C    0.000000   0.000000   0.000000   0.000000   0.000000   0.000000
     2  C    0.000000   0.000000   0.000000   0.000000   0.000000   0.000000
     3  C    0.000000   0.000000   0.000000   0.000000   0.000000   0.000000
     4  C    0.000000   0.000000   0.000000   0.000000   0.000000   0.000000
     5  N    0.000000   0.000000   0.000000   0.000000   0.000000   0.000000
     6  C    0.000000   0.000000   0.000000   0.000000   0.000000   0.000000
     7  O    6.403686   0.000000   0.000000   0.000000   0.000000   0.000000
     8  O    0.000000   6.251046   0.000000   0.000000   0.000000   0.000000
     9  C    0.000000   0.000000   3.915080   0.000000   0.000000   0.000000
    10  H    0.000000   0.000000   0.000000   0.956919   0.000000   0.000000
    11  H    0.000000   0.000000   0.000000   0.000000   0.963360   0.000000
    12  H    0.000000   0.000000   0.000000   0.000000   0.000000   0.950399
    13  H    0.000000   0.000000   0.000000   0.000000   0.000000   0.000000
    14  C    0.000000   0.000000   0.000000   0.000000   0.000000   0.000000
    15  C    0.000000   0.000000   0.000000   0.000000   0.000000   0.000000
    16  H    0.000000   0.000000   0.000000   0.000000   0.000000   0.000000
    17  H    0.000000   0.000000   0.000000   0.000000   0.000000   0.000000
    18  C    0.000000   0.000000   0.000000   0.000000   0.000000   0.000000
    19  H    0.000000   0.000000   0.000000   0.000000   0.000000   0.000000
    20  O    0.000000   0.000000   0.000000   0.000000   0.000000   0.000000
    21  N    0.000000   0.000000   0.000000   0.000000   0.000000   0.000000
    22  H    0.000000   0.000000   0.000000   0.000000   0.000000   0.000000
    23  H    0.000000   0.000000   0.000000   0.000000   0.000000   0.000000
    24  H    0.000000   0.000000   0.000000   0.000000   0.000000   0.000000
    25  H    0.000000   0.000000   0.000000   0.000000   0.000000   0.000000
    26  H    0.000000   0.000000   0.000000   0.000000   0.000000   0.000000
    27  C    0.000000   0.000000   0.000000   0.000000   0.000000   0.000000
    28  H    0.000000   0.000000   0.000000   0.000000   0.000000   0.000000
    29  H    0.000000   0.000000   0.000000   0.000000   0.000000   0.000000
    30  H    0.000000   0.000000   0.000000   0.000000   0.000000   0.000000
    31  C    0.000000   0.000000   0.000000   0.000000   0.000000   0.000000
    32  H    0.000000   0.000000   0.000000   0.000000   0.000000   0.000000
    33  H    0.000000   0.000000   0.000000   0.000000   0.000000   0.000000
    34  H    0.000000   0.000000   0.000000   0.000000   0.000000   0.000000
             13         14         15         16         17         18
     1  C    0.000000   0.000000   0.000000   0.000000   0.000000   0.000000
     2  C    0.000000   0.000000   0.000000   0.000000   0.000000   0.000000
     3  C    0.000000   0.000000   0.000000   0.000000   0.000000   0.000000
     4  C    0.000000   0.000000   0.000000   0.000000   0.000000   0.000000
     5  N    0.000000   0.000000   0.000000   0.000000   0.000000   0.000000
     6  C    0.000000   0.000000   0.000000   0.000000   0.000000   0.000000
     7  O    0.000000   0.000000   0.000000   0.000000   0.000000   0.000000
     8  O    0.000000   0.000000   0.000000   0.000000   0.000000   0.000000
     9  C    0.000000   0.000000   0.000000   0.000000   0.000000   0.000000
    10  H    0.000000   0.000000   0.000000   0.000000   0.000000   0.000000
    11  H    0.000000   0.000000   0.000000   0.000000   0.000000   0.000000
    12  H    0.000000   0.000000   0.000000   0.000000   0.000000   0.000000
    13  H    0.894716   0.000000   0.000000   0.000000   0.000000   0.000000
    14  C    0.000000   4.001535   0.000000   0.000000   0.000000   0.000000
    15  C    0.000000   0.000000   4.352552   0.000000   0.000000   0.000000
    16  H    0.000000   0.000000   0.000000   0.915100   0.000000   0.000000
    17  H    0.000000   0.000000   0.000000   0.000000   0.938059   0.000000
    18  C    0.000000   0.000000   0.000000   0.000000   0.000000   3.709949
    19  H    0.000000   0.000000   0.000000   0.000000   0.000000   0.000000
    20  O    0.000000   0.000000   0.000000   0.000000   0.000000   0.000000
    21  N    0.000000   0.000000   0.000000   0.000000   0.000000   0.000000
    22  H    0.000000   0.000000   0.000000   0.000000   0.000000   0.000000
    23  H    0.000000   0.000000   0.000000   0.000000   0.000000   0.000000
    24  H    0.000000   0.000000   0.000000   0.000000   0.000000   0.000000
    25  H    0.000000   0.000000   0.000000   0.000000   0.000000   0.000000
    26  H    0.000000   0.000000   0.000000   0.000000   0.000000   0.000000
    27  C    0.000000   0.000000   0.000000   0.000000   0.000000   0.000000
    28  H    0.000000   0.000000   0.000000   0.000000   0.000000   0.000000
    29  H    0.000000   0.000000   0.000000   0.000000   0.000000   0.000000
    30  H    0.000000   0.000000   0.000000   0.000000   0.000000   0.000000
    31  C    0.000000   0.000000   0.000000   0.000000   0.000000   0.000000
    32  H    0.000000   0.000000   0.000000   0.000000   0.000000   0.000000
    33  H    0.000000   0.000000   0.000000   0.000000   0.000000   0.000000
    34  H    0.000000   0.000000   0.000000   0.000000   0.000000   0.000000
             19         20         21         22         23         24
     1  C    0.000000   0.000000   0.000000   0.000000   0.000000   0.000000
     2  C    0.000000   0.000000   0.000000   0.000000   0.000000   0.000000
     3  C    0.000000   0.000000   0.000000   0.000000   0.000000   0.000000
     4  C    0.000000   0.000000   0.000000   0.000000   0.000000   0.000000
     5  N    0.000000   0.000000   0.000000   0.000000   0.000000   0.000000
     6  C    0.000000   0.000000   0.000000   0.000000   0.000000   0.000000
     7  O    0.000000   0.000000   0.000000   0.000000   0.000000   0.000000
     8  O    0.000000   0.000000   0.000000   0.000000   0.000000   0.000000
     9  C    0.000000   0.000000   0.000000   0.000000   0.000000   0.000000
    10  H    0.000000   0.000000   0.000000   0.000000   0.000000   0.000000
    11  H    0.000000   0.000000   0.000000   0.000000   0.000000   0.000000
    12  H    0.000000   0.000000   0.000000   0.000000   0.000000   0.000000
    13  H    0.000000   0.000000   0.000000   0.000000   0.000000   0.000000
    14  C    0.000000   0.000000   0.000000   0.000000   0.000000   0.000000
    15  C    0.000000   0.000000   0.000000   0.000000   0.000000   0.000000
    16  H    0.000000   0.000000   0.000000   0.000000   0.000000   0.000000
    17  H    0.000000   0.000000   0.000000   0.000000   0.000000   0.000000
    18  C    0.000000   0.000000   0.000000   0.000000   0.000000   0.000000
    19  H    0.876374   0.000000   0.000000   0.000000   0.000000   0.000000
    20  O    0.000000   6.408928   0.000000   0.000000   0.000000   0.000000
    21  N    0.000000   0.000000   5.059175   0.000000   0.000000   0.000000
    22  H    0.000000   0.000000   0.000000   0.865296   0.000000   0.000000
    23  H    0.000000   0.000000   0.000000   0.000000   0.913096   0.000000
    24  H    0.000000   0.000000   0.000000   0.000000   0.000000   0.924792
    25  H    0.000000   0.000000   0.000000   0.000000   0.000000   0.000000
    26  H    0.000000   0.000000   0.000000   0.000000   0.000000   0.000000
    27  C    0.000000   0.000000   0.000000   0.000000   0.000000   0.000000
    28  H    0.000000   0.000000   0.000000   0.000000   0.000000   0.000000
    29  H    0.000000   0.000000   0.000000   0.000000   0.000000   0.000000
    30  H    0.000000   0.000000   0.000000   0.000000   0.000000   0.000000
    31  C    0.000000   0.000000   0.000000   0.000000   0.000000   0.000000
    32  H    0.000000   0.000000   0.000000   0.000000   0.000000   0.000000
    33  H    0.000000   0.000000   0.000000   0.000000   0.000000   0.000000
    34  H    0.000000   0.000000   0.000000   0.000000   0.000000   0.000000
             25         26         27         28         29         30
     1  C    0.000000   0.000000   0.000000   0.000000   0.000000   0.000000
     2  C    0.000000   0.000000   0.000000   0.000000   0.000000   0.000000
     3  C    0.000000   0.000000   0.000000   0.000000   0.000000   0.000000
     4  C    0.000000   0.000000   0.000000   0.000000   0.000000   0.000000
     5  N    0.000000   0.000000   0.000000   0.000000   0.000000   0.000000
     6  C    0.000000   0.000000   0.000000   0.000000   0.000000   0.000000
     7  O    0.000000   0.000000   0.000000   0.000000   0.000000   0.000000
     8  O    0.000000   0.000000   0.000000   0.000000   0.000000   0.000000
     9  C    0.000000   0.000000   0.000000   0.000000   0.000000   0.000000
    10  H    0.000000   0.000000   0.000000   0.000000   0.000000   0.000000
    11  H    0.000000   0.000000   0.000000   0.000000   0.000000   0.000000
    12  H    0.000000   0.000000   0.000000   0.000000   0.000000   0.000000
    13  H    0.000000   0.000000   0.000000   0.000000   0.000000   0.000000
    14  C    0.000000   0.000000   0.000000   0.000000   0.000000   0.000000
    15  C    0.000000   0.000000   0.000000   0.000000   0.000000   0.000000
    16  H    0.000000   0.000000   0.000000   0.000000   0.000000   0.000000
    17  H    0.000000   0.000000   0.000000   0.000000   0.000000   0.000000
    18  C    0.000000   0.000000   0.000000   0.000000   0.000000   0.000000
    19  H    0.000000   0.000000   0.000000   0.000000   0.000000   0.000000
    20  O    0.000000   0.000000   0.000000   0.000000   0.000000   0.000000
    21  N    0.000000   0.000000   0.000000   0.000000   0.000000   0.000000
    22  H    0.000000   0.000000   0.000000   0.000000   0.000000   0.000000
    23  H    0.000000   0.000000   0.000000   0.000000   0.000000   0.000000
    24  H    0.000000   0.000000   0.000000   0.000000   0.000000   0.000000
    25  H    0.902196   0.000000   0.000000   0.000000   0.000000   0.000000
    26  H    0.000000   0.888421   0.000000   0.000000   0.000000   0.000000
    27  C    0.000000   0.000000   4.096723   0.000000   0.000000   0.000000
    28  H    0.000000   0.000000   0.000000   0.944908   0.000000   0.000000
    29  H    0.000000   0.000000   0.000000   0.000000   0.949767   0.000000
    30  H    0.000000   0.000000   0.000000   0.000000   0.000000   0.960073
    31  C    0.000000   0.000000   0.000000   0.000000   0.000000   0.000000
    32  H    0.000000   0.000000   0.000000   0.000000   0.000000   0.000000
    33  H    0.000000   0.000000   0.000000   0.000000   0.000000   0.000000
    34  H    0.000000   0.000000   0.000000   0.000000   0.000000   0.000000
             31         32         33         34
     1  C    0.000000   0.000000   0.000000   0.000000
     2  C    0.000000   0.000000   0.000000   0.000000
     3  C    0.000000   0.000000   0.000000   0.000000
     4  C    0.000000   0.000000   0.000000   0.000000
     5  N    0.000000   0.000000   0.000000   0.000000
     6  C    0.000000   0.000000   0.000000   0.000000
     7  O    0.000000   0.000000   0.000000   0.000000
     8  O    0.000000   0.000000   0.000000   0.000000
     9  C    0.000000   0.000000   0.000000   0.000000
    10  H    0.000000   0.000000   0.000000   0.000000
    11  H    0.000000   0.000000   0.000000   0.000000
    12  H    0.000000   0.000000   0.000000   0.000000
    13  H    0.000000   0.000000   0.000000   0.000000
    14  C    0.000000   0.000000   0.000000   0.000000
    15  C    0.000000   0.000000   0.000000   0.000000
    16  H    0.000000   0.000000   0.000000   0.000000
    17  H    0.000000   0.000000   0.000000   0.000000
    18  C    0.000000   0.000000   0.000000   0.000000
    19  H    0.000000   0.000000   0.000000   0.000000
    20  O    0.000000   0.000000   0.000000   0.000000
    21  N    0.000000   0.000000   0.000000   0.000000
    22  H    0.000000   0.000000   0.000000   0.000000
    23  H    0.000000   0.000000   0.000000   0.000000
    24  H    0.000000   0.000000   0.000000   0.000000
    25  H    0.000000   0.000000   0.000000   0.000000
    26  H    0.000000   0.000000   0.000000   0.000000
    27  C    0.000000   0.000000   0.000000   0.000000
    28  H    0.000000   0.000000   0.000000   0.000000
    29  H    0.000000   0.000000   0.000000   0.000000
    30  H    0.000000   0.000000   0.000000   0.000000
    31  C    4.079104   0.000000   0.000000   0.000000
    32  H    0.000000   0.937753   0.000000   0.000000
    33  H    0.000000   0.000000   0.956605   0.000000
    34  H    0.000000   0.000000   0.000000   0.959689
 Mulliken atomic charges:
              1
     1  C   -0.156051
     2  C   -0.062594
     3  C   -0.198581
     4  C   -0.054062
     5  N    0.101561
     6  C    0.345026
     7  O   -0.403686
     8  O   -0.251046
     9  C    0.084920
    10  H    0.043081
    11  H    0.036640
    12  H    0.049601
    13  H    0.105284
    14  C   -0.001535
    15  C   -0.352552
    16  H    0.084900
    17  H    0.061941
    18  C    0.290051
    19  H    0.123626
    20  O   -0.408928
    21  N   -0.059175
    22  H    0.134704
    23  H    0.086904
    24  H    0.075208
    25  H    0.097804
    26  H    0.111579
    27  C   -0.096723
    28  H    0.055092
    29  H    0.050233
    30  H    0.039927
    31  C   -0.079104
    32  H    0.062247
    33  H    0.043395
    34  H    0.040311
 Sum of Mulliken charges=   0.00000
 Atomic charges with hydrogens summed into heavy atoms:
              1
     1  C    0.006061
     2  C    0.035210
     3  C   -0.087002
     4  C    0.080643
     5  N    0.206845
     6  C    0.345026
     7  O   -0.403686
     8  O   -0.251046
     9  C    0.214242
    10  H    0.000000
    11  H    0.000000
    12  H    0.000000
    13  H    0.000000
    14  C    0.145306
    15  C   -0.228926
    16  H    0.000000
    17  H    0.000000
    18  C    0.290051
    19  H    0.000000
    20  O   -0.408928
    21  N   -0.059175
    22  H    0.000000
    23  H    0.000000
    24  H    0.000000
    25  H    0.000000
    26  H    0.000000
    27  C    0.048530
    28  H    0.000000
    29  H    0.000000
    30  H    0.000000
    31  C    0.066849
    32  H    0.000000
    33  H    0.000000
    34  H    0.000000
 Sum of Mulliken charges=   0.00000
 APT atomic charges:
              1
     1  C   -0.429198
     2  C    0.173035
     3  C   -0.541397
     4  C    0.644314
     5  N   -0.946063
     6  C    1.581330
     7  O   -0.809395
     8  O   -0.663845
     9  C    0.312809
    10  H    0.001049
    11  H   -0.003260
    12  H    0.003436
    13  H    0.158853
    14  C    0.315874
    15  C   -0.526068
    16  H    0.041658
    17  H   -0.005876
    18  C    1.221447
    19  H    0.068258
    20  O   -0.729486
    21  N   -0.626223
    22  H    0.088776
    23  H    0.066170
    24  H    0.085882
    25  H    0.102434
    26  H    0.116102
    27  C    0.083347
    28  H    0.033506
    29  H    0.023744
    30  H   -0.006907
    31  C    0.123310
    32  H    0.038269
    33  H    0.013816
    34  H   -0.008876
 Sum of APT charges=   0.00082
 APT Atomic charges with hydrogens summed into heavy atoms:
              1
     1  C   -0.277146
     2  C    0.275470
     3  C   -0.425294
     4  C    0.733090
     5  N   -0.787210
     6  C    1.581330
     7  O   -0.809395
     8  O   -0.663845
     9  C    0.314034
    10  H    0.000000
    11  H    0.000000
    12  H    0.000000
    13  H    0.000000
    14  C    0.351656
    15  C   -0.457810
    16  H    0.000000
    17  H    0.000000
    18  C    1.221447
    19  H    0.000000
    20  O   -0.729486
    21  N   -0.626223
    22  H    0.000000
    23  H    0.000000
    24  H    0.000000
    25  H    0.000000
    26  H    0.000000
    27  C    0.133690
    28  H    0.000000
    29  H    0.000000
    30  H    0.000000
    31  C    0.166518
    32  H    0.000000
    33  H    0.000000
    34  H    0.000000
 Sum of APT charges=   0.00082
 -------------------------------------------------------------------
 Center     Atomic                   Forces (Hartrees/Bohr)
 Number     Number              X              Y              Z
 -------------------------------------------------------------------
    1          6          -0.005148142   -0.000104398    0.000777910
    2          6          -0.000006850    0.000011542    0.000008634
    3          6          -0.000002018    0.000005388   -0.000004248
    4          6           0.001246371    0.000809750    0.000452385
    5          7           0.000002415    0.000006720   -0.000002621
    6          6          -0.000000012   -0.000009403   -0.000003159
    7          8          -0.000001797    0.000004076    0.000002297
    8          8           0.000002183    0.000003335   -0.000000206
    9          6          -0.000001905   -0.000000185   -0.000000220
   10          1          -0.000000041    0.000000405    0.000000068
   11          1           0.000000773   -0.000000584   -0.000000188
   12          1           0.000000355   -0.000000317    0.000000121
   13          1          -0.000002679    0.000003071    0.000000019
   14          6           0.005153218    0.000099968   -0.000774305
   15          6          -0.001244964   -0.000823160   -0.000437490
   16          1          -0.000003071   -0.000003496   -0.000003760
   17          1           0.000001497    0.000000123   -0.000004386
   18          6           0.000004579    0.000008161   -0.000009011
   19          1          -0.000004676    0.000003557   -0.000002474
   20          8           0.000002851   -0.000005922    0.000000772
   21          7          -0.000007362   -0.000000982    0.000012664
   22          1          -0.000000974    0.000000669    0.000000023
   23          1           0.000002441   -0.000004377   -0.000005059
   24          1          -0.000001473    0.000001603   -0.000002056
   25          1           0.000001427    0.000000333    0.000002919
   26          1           0.000003328   -0.000002925   -0.000000334
   27          6           0.000003663    0.000000456   -0.000006252
   28          1          -0.000000122    0.000000917   -0.000002082
   29          1          -0.000000268   -0.000002815   -0.000002445
   30          1          -0.000000438    0.000000213   -0.000001559
   31          6           0.000000497    0.000000226    0.000002490
   32          1          -0.000000327    0.000000977   -0.000000492
   33          1           0.000001314   -0.000002422    0.000000968
   34          1           0.000000207   -0.000000506    0.000001076
 -------------------------------------------------------------------
 Cartesian Forces:  Max     0.005153218 RMS     0.000761311

 GradGradGradGradGradGradGradGradGradGradGradGradGradGradGradGradGradGrad
 Berny optimization.
 Internal  Forces:  Max     0.002737144 RMS     0.000532438
 Search for a saddle point.
 Step number   1 out of a maximum of  60
 All quantities printed in internal units (Hartrees-Bohrs-Radians)
 Swaping is turned off.
 Second derivative matrix not updated -- analytic derivatives used.
     Eigenvalues ---   -0.15341   0.00071   0.00125   0.00250   0.00383
     Eigenvalues ---    0.00426   0.00555   0.00719   0.00781   0.00802
     Eigenvalues ---    0.00824   0.01287   0.01358   0.01573   0.01852
     Eigenvalues ---    0.02017   0.02228   0.02559   0.02795   0.03008
     Eigenvalues ---    0.03498   0.03983   0.04801   0.05321   0.05560
     Eigenvalues ---    0.05630   0.05674   0.05743   0.05849   0.06155
     Eigenvalues ---    0.06767   0.07252   0.07313   0.07517   0.08425
     Eigenvalues ---    0.08765   0.09944   0.10282   0.10548   0.11137
     Eigenvalues ---    0.11218   0.11290   0.11415   0.11849   0.12499
     Eigenvalues ---    0.12676   0.13254   0.13400   0.13540   0.13627
     Eigenvalues ---    0.13863   0.15319   0.16353   0.16749   0.17362
     Eigenvalues ---    0.18730   0.19726   0.20139   0.21471   0.24481
     Eigenvalues ---    0.27143   0.27839   0.29594   0.30226   0.31040
     Eigenvalues ---    0.31456   0.32033   0.32164   0.32249   0.32298
     Eigenvalues ---    0.32386   0.32437   0.32502   0.32649   0.33377
     Eigenvalues ---    0.34244   0.35127   0.35884   0.36241   0.36740
     Eigenvalues ---    0.37617   0.38192   0.39202   0.39516   0.43914
     Eigenvalues ---    0.44368   0.50873   0.58706   0.60477   0.61930
     Eigenvalues ---    0.64487   0.70783   0.94798   0.96197   1.41570
     Eigenvalues ---    1.850391000.000001000.000001000.000001000.00000
     Eigenvalues --- 1000.000001000.000001000.000001000.000001000.00000
     Eigenvalues --- 1000.000001000.000001000.000001000.000001000.00000
     Eigenvalues --- 1000.000001000.000001000.000001000.000001000.00000
     Eigenvalues --- 1000.000001000.000001000.000001000.000001000.00000
     Eigenvalues --- 1000.000001000.000001000.000001000.000001000.00000
     Eigenvalues --- 1000.000001000.000001000.000001000.000001000.00000
     Eigenvalues --- 1000.000001000.000001000.000001000.000001000.00000
     Eigenvalues --- 1000.000001000.000001000.000001000.000001000.00000
     Eigenvalues --- 1000.000001000.000001000.000001000.000001000.00000
     Eigenvalues --- 1000.000001000.000001000.000001000.000001000.00000
     Eigenvalues --- 1000.000001000.000001000.000001000.000001000.00000
 Eigenvectors required to have negative eigenvalues:
                          R1        R2        R3        R4        R5
         1             -0.15580   0.54079   0.12583   0.12866   0.00043
                          R6        R7        R8        R9        R10
         1             -0.00687   0.18237   0.00458  -0.14605  -0.00029
                          R11       R12       R13       R14       R15
         1             -0.00239  -0.00047  -0.00180   0.00816  -0.00093
                          R16       R17       R18       R19       R20
         1              0.00185  -0.00062   0.00014  -0.00008   0.00002
                          R21       R22       R23       R24       R25
         1             -0.23105  -0.03369  -0.03456   0.00283  -0.00274
                          R26       R27       R28       R29       R30
         1             -0.00771  -0.01009   0.00797  -0.00206  -0.00042
                          R31       R32       R33       R34       R35
         1             -0.00127   0.00878  -0.00018  -0.00018   0.00034
                          A1        A2        A3        A4        A5
         1              0.06631   0.05459   0.08319  -0.01819   0.02049
                          A6        A7        A8        A9        A10
         1             -0.05140  -0.07439  -0.02662  -0.04056  -0.06366
                          A11       A12       A13       A14       A15
         1             -0.06639  -0.06951   0.02963   0.13687  -0.05268
                          A16       A17       A18       A19       A20
         1             -0.07171   0.07526  -0.05087  -0.01112   0.00496
                          A21       A22       A23       A24       A25
         1              0.02685   0.01342  -0.01358  -0.01350   0.00997
                          A26       A27       A28       A29       A30
         1              0.00183   0.00137  -0.00255   0.00147  -0.00076
                          A31       A32       A33       A34       A35
         1              0.00089   0.00068  -0.00009  -0.00053  -0.00016
                          A36       A37       A38       A39       A40
         1              0.04095   0.08736   0.09413   0.04236   0.08165
                          A41       A42       A43       A44       A45
         1              0.00519  -0.02660   0.00616  -0.01856   0.01486
                          A46       A47       A48       A49       A50
         1             -0.02528   0.00338   0.00620   0.00169   0.00625
                          A51       A52       A53       A54       A55
         1             -0.00646  -0.00401   0.00831  -0.00599   0.00045
                          A56       A57       A58       A59       A60
         1              0.00033  -0.00198   0.00079   0.00031   0.00021
                          D1        D2        D3        D4        D5
         1              0.10306   0.04782   0.09259   0.03735   0.10043
                          D6        D7        D8        D9        D10
         1              0.04520   0.12753   0.07229   0.06492   0.00968
                          D11       D12       D13       D14       D15
         1              0.02450   0.00772   0.00408   0.07633  -0.00577
                          D16       D17       D18       D19       D20
         1              0.13269   0.05059  -0.21963  -0.03854  -0.14166
                          D21       D22       D23       D24       D25
         1              0.03943   0.13236   0.09462  -0.04412  -0.08186
                          D26       D27       D28       D29       D30
         1             -0.00864  -0.01866   0.03528   0.02526   0.00289
                          D31       D32       D33       D34       D35
         1             -0.00698   0.00080   0.00083   0.00022   0.11741
                          D36       D37       D38       D39       D40
         1             -0.07767  -0.05173  -0.24681   0.27897   0.08389
                          D41       D42       D43       D44       D45
         1             -0.15016  -0.19922   0.04717  -0.00189   0.00015
                          D46       D47       D48       D49       D50
         1              0.01980  -0.04559  -0.02594   0.01819   0.01826
                          D51       D52       D53       D54       D55
         1              0.02562  -0.00127  -0.00120   0.00616  -0.01473
                          D56       D57       D58       D59       D60
         1             -0.01614  -0.01533   0.01662   0.01521   0.01602
 RFO step:  Lambda0=1.034976275D-07 Lambda=-2.94357698D-03.
 Linear search not attempted -- option 19 set.
 Maximum step size (   0.300) exceeded in Quadratic search.
    -- Step size scaled by   0.370
 Iteration  1 RMS(Cart)=  0.04718470 RMS(Int)=  0.00069630
 Iteration  2 RMS(Cart)=  0.00146041 RMS(Int)=  0.00024642
 Iteration  3 RMS(Cart)=  0.00000445 RMS(Int)=  0.00024642
 Iteration  4 RMS(Cart)=  0.00000000 RMS(Int)=  0.00024642
 Variable       Old X    -DE/DX   Delta X   Delta X   Delta X     New X
                                 (Linear)    (Quad)   (Total)
    R1        2.63436  -0.00090   0.00000  -0.01117  -0.01117   2.62320
    R2        3.63503   0.00197   0.00000   0.12999   0.12998   3.76501
    R3        4.39447   0.00091   0.00000   0.06420   0.06423   4.45870
    R4        4.38694   0.00092   0.00000   0.04587   0.04575   4.43270
    R5        2.07131   0.00000   0.00000  -0.00387  -0.00387   2.06744
    R6        2.06741   0.00000   0.00000  -0.00371  -0.00371   2.06370
    R7        2.63552  -0.00069   0.00000  -0.00087  -0.00087   2.63464
    R8        2.07445   0.00000   0.00000  -0.00014  -0.00014   2.07431
    R9        2.61264  -0.00014   0.00000   0.00538   0.00538   2.61802
   R10        2.07632   0.00000   0.00000  -0.00065  -0.00065   2.07567
   R11        2.66374  -0.00001   0.00000   0.01046   0.01046   2.67420
   R12        2.09806   0.00000   0.00000   0.00074   0.00074   2.09880
   R13        2.69645   0.00000   0.00000  -0.00383  -0.00383   2.69262
   R14        1.89232   0.00000   0.00000  -0.00047  -0.00047   1.89185
   R15        2.30617   0.00000   0.00000   0.00096   0.00096   2.30713
   R16        2.57627   0.00000   0.00000   0.00103   0.00103   2.57731
   R17        2.67094   0.00000   0.00000  -0.00055  -0.00055   2.67039
   R18        2.07056   0.00000   0.00000  -0.00037  -0.00037   2.07020
   R19        2.06910   0.00000   0.00000   0.00004   0.00004   2.06914
   R20        2.06504   0.00000   0.00000   0.00004   0.00004   2.06508
   R21        2.63450   0.00051   0.00000  -0.00736  -0.00736   2.62714
   R22        2.07171  -0.00011   0.00000  -0.00378  -0.00377   2.06793
   R23        2.06987  -0.00016   0.00000  -0.00330  -0.00312   2.06674
   R24        2.77173   0.00000   0.00000   0.01261   0.01261   2.78434
   R25        2.08223   0.00000   0.00000   0.00221   0.00221   2.08443
   R26        2.32352   0.00000   0.00000  -0.00236  -0.00236   2.32116
   R27        2.73141   0.00000   0.00000  -0.00334  -0.00334   2.72807
   R28        2.79775   0.00001   0.00000   0.00052   0.00052   2.79827
   R29        2.79631   0.00000   0.00000   0.00037   0.00037   2.79668
   R30        2.07241   0.00000   0.00000  -0.00004  -0.00004   2.07237
   R31        2.08296   0.00000   0.00000   0.00011   0.00011   2.08307
   R32        2.09189   0.00000   0.00000  -0.00074  -0.00074   2.09115
   R33        2.07468   0.00000   0.00000   0.00001   0.00001   2.07469
   R34        2.07487   0.00000   0.00000   0.00003   0.00003   2.07490
   R35        2.08018   0.00000   0.00000  -0.00050  -0.00050   2.07969
    A1        1.77810  -0.00142   0.00000  -0.03188  -0.03167   1.74643
    A2        2.26450  -0.00153   0.00000  -0.03892  -0.03884   2.22566
    A3        1.58958  -0.00093   0.00000  -0.02378  -0.02376   1.56582
    A4        2.12068   0.00012   0.00000   0.01862   0.01751   2.13819
    A5        2.04912   0.00050   0.00000   0.01484   0.01423   2.06335
    A6        1.70651   0.00005   0.00000  -0.03253  -0.03220   1.67430
    A7        1.80534   0.00067   0.00000  -0.00240  -0.00246   1.80288
    A8        0.80505  -0.00045   0.00000  -0.00897  -0.00909   0.79596
    A9        1.40862   0.00031   0.00000  -0.02796  -0.02802   1.38060
   A10        1.55163   0.00049   0.00000   0.00326   0.00346   1.55509
   A11        2.17792  -0.00013   0.00000  -0.03686  -0.03687   2.14105
   A12        1.50231   0.00054   0.00000  -0.00176  -0.00150   1.50081
   A13        1.92551  -0.00011   0.00000   0.00962   0.00880   1.93431
   A14        2.15389  -0.00274   0.00000  -0.00645  -0.00647   2.14743
   A15        2.06588   0.00151   0.00000   0.00334   0.00333   2.06921
   A16        2.04217   0.00110   0.00000   0.00134   0.00133   2.04349
   A17        2.21246  -0.00138   0.00000  -0.01282  -0.01292   2.19955
   A18        2.03096   0.00070   0.00000   0.00406   0.00396   2.03491
   A19        2.02478   0.00055   0.00000   0.00471   0.00461   2.02939
   A20        2.15441  -0.00001   0.00000  -0.01102  -0.01169   2.14271
   A21        2.08181   0.00000   0.00000  -0.00140  -0.00212   2.07969
   A22        2.00910   0.00001   0.00000  -0.00492  -0.00560   2.00350
   A23        2.10231   0.00000   0.00000   0.00123   0.00122   2.10353
   A24        2.03989   0.00000   0.00000  -0.00198  -0.00199   2.03791
   A25        2.05012   0.00000   0.00000  -0.00107  -0.00108   2.04905
   A26        2.20768   0.00000   0.00000   0.00228   0.00227   2.20995
   A27        1.91813   0.00000   0.00000  -0.00057  -0.00058   1.91755
   A28        2.15511   0.00000   0.00000  -0.00198  -0.00199   2.15312
   A29        2.05111   0.00000   0.00000   0.00085   0.00085   2.05196
   A30        1.94811   0.00000   0.00000   0.00110   0.00110   1.94922
   A31        1.94614   0.00000   0.00000   0.00005   0.00005   1.94619
   A32        1.78222   0.00000   0.00000   0.00029   0.00029   1.78251
   A33        1.91923   0.00000   0.00000  -0.00055  -0.00055   1.91868
   A34        1.93243   0.00000   0.00000  -0.00044  -0.00044   1.93199
   A35        1.93236   0.00000   0.00000  -0.00040  -0.00040   1.93196
   A36        1.94643  -0.00139   0.00000   0.00096   0.00098   1.94741
   A37        2.06268   0.00112   0.00000   0.01688   0.01616   2.07885
   A38        2.04152   0.00107   0.00000   0.01575   0.01508   2.05659
   A39        1.96042  -0.00074   0.00000   0.01109   0.01018   1.97060
   A40        2.11660   0.00000   0.00000  -0.01073  -0.01157   2.10503
   A41        2.07363   0.00000   0.00000  -0.00476  -0.00565   2.06798
   A42        2.04302   0.00001   0.00000  -0.00688  -0.00776   2.03526
   A43        2.16560   0.00000   0.00000  -0.00269  -0.00270   2.16290
   A44        2.05927   0.00002   0.00000  -0.00035  -0.00037   2.05890
   A45        2.05677  -0.00002   0.00000   0.00249   0.00247   2.05924
   A46        2.02943   0.00001   0.00000   0.00079   0.00078   2.03021
   A47        2.05148  -0.00001   0.00000   0.00083   0.00082   2.05230
   A48        1.98802   0.00000   0.00000   0.00033   0.00032   1.98834
   A49        1.92284   0.00000   0.00000   0.00006   0.00006   1.92290
   A50        1.90073   0.00000   0.00000   0.00008   0.00008   1.90081
   A51        1.96752   0.00000   0.00000  -0.00143  -0.00143   1.96608
   A52        1.89637   0.00000   0.00000  -0.00028  -0.00028   1.89610
   A53        1.89885   0.00000   0.00000   0.00103   0.00103   1.89988
   A54        1.87581   0.00000   0.00000   0.00058   0.00058   1.87639
   A55        1.91181   0.00000   0.00000   0.00069   0.00069   1.91250
   A56        1.90767   0.00000   0.00000  -0.00067  -0.00067   1.90699
   A57        1.96963   0.00000   0.00000  -0.00101  -0.00101   1.96862
   A58        1.88765   0.00000   0.00000  -0.00021  -0.00021   1.88744
   A59        1.89113   0.00000   0.00000   0.00083   0.00083   1.89196
   A60        1.89417   0.00000   0.00000   0.00040   0.00040   1.89458
    D1        1.11088  -0.00106   0.00000  -0.04406  -0.04396   1.06692
    D2       -1.80381  -0.00056   0.00000  -0.03498  -0.03487  -1.83868
    D3        1.08207  -0.00087   0.00000  -0.04682  -0.04675   1.03533
    D4       -1.83261  -0.00037   0.00000  -0.03773  -0.03766  -1.87027
    D5        1.56435  -0.00106   0.00000  -0.04649  -0.04667   1.51769
    D6       -1.35033  -0.00055   0.00000  -0.03740  -0.03758  -1.38791
    D7       -0.75527  -0.00016   0.00000   0.01122   0.01157  -0.74370
    D8        2.61323   0.00034   0.00000   0.02030   0.02066   2.63389
    D9        3.06774  -0.00095   0.00000  -0.06103  -0.06138   3.00636
   D10        0.15306  -0.00044   0.00000  -0.05195  -0.05229   0.10077
   D11       -0.93028   0.00024   0.00000   0.01062   0.01030  -0.91998
   D12        1.24422  -0.00006   0.00000   0.00922   0.00970   1.25392
   D13       -3.06423   0.00001   0.00000   0.00845   0.00843  -3.05580
   D14        0.21083  -0.00087   0.00000  -0.03818  -0.03818   0.17265
   D15       -2.73707  -0.00010   0.00000  -0.01299  -0.01300  -2.75008
   D16        3.12837  -0.00131   0.00000  -0.04689  -0.04688   3.08149
   D17        0.18047  -0.00054   0.00000  -0.02170  -0.02170   0.15876
   D18        0.70169   0.00037   0.00000   0.06640   0.06637   0.76806
   D19       -2.74665   0.00037   0.00000  -0.00286  -0.00284  -2.74949
   D20       -2.63300  -0.00037   0.00000   0.04123   0.04121  -2.59179
   D21        0.20184  -0.00037   0.00000  -0.02802  -0.02800   0.17384
   D22        3.01957   0.00000   0.00000  -0.05817  -0.05808   2.96149
   D23       -0.57813   0.00000   0.00000  -0.06280  -0.06271  -0.64084
[...]
 Alpha  occ. eigenvalues --   -0.41322  -0.39192  -0.35284  -0.33994  -0.31318
 Alpha virt. eigenvalues --   -0.03090   0.00253   0.03131   0.04341   0.05469
 Alpha virt. eigenvalues --    0.07097   0.07886   0.09855   0.11040   0.11733
 Alpha virt. eigenvalues --    0.12150   0.12398   0.12868   0.13498   0.13678
 Alpha virt. eigenvalues --    0.13974   0.14125   0.14522   0.14698   0.14919
 Alpha virt. eigenvalues --    0.15169   0.15268   0.15430   0.16223   0.16281
 Alpha virt. eigenvalues --    0.16800   0.17170   0.17613   0.18404   0.18770
 Alpha virt. eigenvalues --    0.19418   0.19578   0.20302   0.21083   0.22101
 Alpha virt. eigenvalues --    0.26194   0.27209
          Condensed to atoms (all electrons):
              1          2          3          4          5          6
     1  C    4.162668   0.000000   0.000000   0.000000   0.000000   0.000000
     2  C    0.000000   4.069076   0.000000   0.000000   0.000000   0.000000
     3  C    0.000000   0.000000   4.196737   0.000000   0.000000   0.000000
     4  C    0.000000   0.000000   0.000000   4.052378   0.000000   0.000000
     5  N    0.000000   0.000000   0.000000   0.000000   4.914904   0.000000
     6  C    0.000000   0.000000   0.000000   0.000000   0.000000   3.653351
     7  O    0.000000   0.000000   0.000000   0.000000   0.000000   0.000000
     8  O    0.000000   0.000000   0.000000   0.000000   0.000000   0.000000
     9  C    0.000000   0.000000   0.000000   0.000000   0.000000   0.000000
    10  H    0.000000   0.000000   0.000000   0.000000   0.000000   0.000000
    11  H    0.000000   0.000000   0.000000   0.000000   0.000000   0.000000
    12  H    0.000000   0.000000   0.000000   0.000000   0.000000   0.000000
    13  H    0.000000   0.000000   0.000000   0.000000   0.000000   0.000000
    14  C    0.000000   0.000000   0.000000   0.000000   0.000000   0.000000
    15  C    0.000000   0.000000   0.000000   0.000000   0.000000   0.000000
    16  H    0.000000   0.000000   0.000000   0.000000   0.000000   0.000000
    17  H    0.000000   0.000000   0.000000   0.000000   0.000000   0.000000
    18  C    0.000000   0.000000   0.000000   0.000000   0.000000   0.000000
    19  H    0.000000   0.000000   0.000000   0.000000   0.000000   0.000000
    20  O    0.000000   0.000000   0.000000   0.000000   0.000000   0.000000
    21  N    0.000000   0.000000   0.000000   0.000000   0.000000   0.000000
    22  H    0.000000   0.000000   0.000000   0.000000   0.000000   0.000000
    23  H    0.000000   0.000000   0.000000   0.000000   0.000000   0.000000
    24  H    0.000000   0.000000   0.000000   0.000000   0.000000   0.000000
    25  H    0.000000   0.000000   0.000000   0.000000   0.000000   0.000000
    26  H    0.000000   0.000000   0.000000   0.000000   0.000000   0.000000
    27  C    0.000000   0.000000   0.000000   0.000000   0.000000   0.000000
    28  H    0.000000   0.000000   0.000000   0.000000   0.000000   0.000000
    29  H    0.000000   0.000000   0.000000   0.000000   0.000000   0.000000
    30  H    0.000000   0.000000   0.000000   0.000000   0.000000   0.000000
    31  C    0.000000   0.000000   0.000000   0.000000   0.000000   0.000000
    32  H    0.000000   0.000000   0.000000   0.000000   0.000000   0.000000
    33  H    0.000000   0.000000   0.000000   0.000000   0.000000   0.000000
    34  H    0.000000   0.000000   0.000000   0.000000   0.000000   0.000000
              7          8          9         10         11         12
     1  C    0.000000   0.000000   0.000000   0.000000   0.000000   0.000000
     2  C    0.000000   0.000000   0.000000   0.000000   0.000000   0.000000
     3  C    0.000000   0.000000   0.000000   0.000000   0.000000   0.000000
     4  C    0.000000   0.000000   0.000000   0.000000   0.000000   0.000000
     5  N    0.000000   0.000000   0.000000   0.000000   0.000000   0.000000
     6  C    0.000000   0.000000   0.000000   0.000000   0.000000   0.000000
     7  O    6.411143   0.000000   0.000000   0.000000   0.000000   0.000000
     8  O    0.000000   6.252988   0.000000   0.000000   0.000000   0.000000
     9  C    0.000000   0.000000   3.914897   0.000000   0.000000   0.000000
    10  H    0.000000   0.000000   0.000000   0.958249   0.000000   0.000000
    11  H    0.000000   0.000000   0.000000   0.000000   0.963740   0.000000
    12  H    0.000000   0.000000   0.000000   0.000000   0.000000   0.951862
    13  H    0.000000   0.000000   0.000000   0.000000   0.000000   0.000000
    14  C    0.000000   0.000000   0.000000   0.000000   0.000000   0.000000
    15  C    0.000000   0.000000   0.000000   0.000000   0.000000   0.000000
    16  H    0.000000   0.000000   0.000000   0.000000   0.000000   0.000000
    17  H    0.000000   0.000000   0.000000   0.000000   0.000000   0.000000
    18  C    0.000000   0.000000   0.000000   0.000000   0.000000   0.000000
    19  H    0.000000   0.000000   0.000000   0.000000   0.000000   0.000000
    20  O    0.000000   0.000000   0.000000   0.000000   0.000000   0.000000
    21  N    0.000000   0.000000   0.000000   0.000000   0.000000   0.000000
    22  H    0.000000   0.000000   0.000000   0.000000   0.000000   0.000000
    23  H    0.000000   0.000000   0.000000   0.000000   0.000000   0.000000
    24  H    0.000000   0.000000   0.000000   0.000000   0.000000   0.000000
    25  H    0.000000   0.000000   0.000000   0.000000   0.000000   0.000000
    26  H    0.000000   0.000000   0.000000   0.000000   0.000000   0.000000
    27  C    0.000000   0.000000   0.000000   0.000000   0.000000   0.000000
    28  H    0.000000   0.000000   0.000000   0.000000   0.000000   0.000000
    29  H    0.000000   0.000000   0.000000   0.000000   0.000000   0.000000
    30  H    0.000000   0.000000   0.000000   0.000000   0.000000   0.000000
    31  C    0.000000   0.000000   0.000000   0.000000   0.000000   0.000000
    32  H    0.000000   0.000000   0.000000   0.000000   0.000000   0.000000
    33  H    0.000000   0.000000   0.000000   0.000000   0.000000   0.000000
    34  H    0.000000   0.000000   0.000000   0.000000   0.000000   0.000000
             13         14         15         16         17         18
     1  C    0.000000   0.000000   0.000000   0.000000   0.000000   0.000000
     2  C    0.000000   0.000000   0.000000   0.000000   0.000000   0.000000
     3  C    0.000000   0.000000   0.000000   0.000000   0.000000   0.000000
     4  C    0.000000   0.000000   0.000000   0.000000   0.000000   0.000000
     5  N    0.000000   0.000000   0.000000   0.000000   0.000000   0.000000
     6  C    0.000000   0.000000   0.000000   0.000000   0.000000   0.000000
     7  O    0.000000   0.000000   0.000000   0.000000   0.000000   0.000000
     8  O    0.000000   0.000000   0.000000   0.000000   0.000000   0.000000
     9  C    0.000000   0.000000   0.000000   0.000000   0.000000   0.000000
    10  H    0.000000   0.000000   0.000000   0.000000   0.000000   0.000000
    11  H    0.000000   0.000000   0.000000   0.000000   0.000000   0.000000
    12  H    0.000000   0.000000   0.000000   0.000000   0.000000   0.000000
    13  H    0.896135   0.000000   0.000000   0.000000   0.000000   0.000000
    14  C    0.000000   4.030953   0.000000   0.000000   0.000000   0.000000
    15  C    0.000000   0.000000   4.309253   0.000000   0.000000   0.000000
    16  H    0.000000   0.000000   0.000000   0.910794   0.000000   0.000000
    17  H    0.000000   0.000000   0.000000   0.000000   0.930883   0.000000
    18  C    0.000000   0.000000   0.000000   0.000000   0.000000   3.713732
    19  H    0.000000   0.000000   0.000000   0.000000   0.000000   0.000000
    20  O    0.000000   0.000000   0.000000   0.000000   0.000000   0.000000
    21  N    0.000000   0.000000   0.000000   0.000000   0.000000   0.000000
    22  H    0.000000   0.000000   0.000000   0.000000   0.000000   0.000000
    23  H    0.000000   0.000000   0.000000   0.000000   0.000000   0.000000
    24  H    0.000000   0.000000   0.000000   0.000000   0.000000   0.000000
    25  H    0.000000   0.000000   0.000000   0.000000   0.000000   0.000000
    26  H    0.000000   0.000000   0.000000   0.000000   0.000000   0.000000
    27  C    0.000000   0.000000   0.000000   0.000000   0.000000   0.000000
    28  H    0.000000   0.000000   0.000000   0.000000   0.000000   0.000000
    29  H    0.000000   0.000000   0.000000   0.000000   0.000000   0.000000
    30  H    0.000000   0.000000   0.000000   0.000000   0.000000   0.000000
    31  C    0.000000   0.000000   0.000000   0.000000   0.000000   0.000000
    32  H    0.000000   0.000000   0.000000   0.000000   0.000000   0.000000
    33  H    0.000000   0.000000   0.000000   0.000000   0.000000   0.000000
    34  H    0.000000   0.000000   0.000000   0.000000   0.000000   0.000000
             19         20         21         22         23         24
     1  C    0.000000   0.000000   0.000000   0.000000   0.000000   0.000000
     2  C    0.000000   0.000000   0.000000   0.000000   0.000000   0.000000
     3  C    0.000000   0.000000   0.000000   0.000000   0.000000   0.000000
     4  C    0.000000   0.000000   0.000000   0.000000   0.000000   0.000000
     5  N    0.000000   0.000000   0.000000   0.000000   0.000000   0.000000
     6  C    0.000000   0.000000   0.000000   0.000000   0.000000   0.000000
     7  O    0.000000   0.000000   0.000000   0.000000   0.000000   0.000000
     8  O    0.000000   0.000000   0.000000   0.000000   0.000000   0.000000
     9  C    0.000000   0.000000   0.000000   0.000000   0.000000   0.000000
    10  H    0.000000   0.000000   0.000000   0.000000   0.000000   0.000000
    11  H    0.000000   0.000000   0.000000   0.000000   0.000000   0.000000
    12  H    0.000000   0.000000   0.000000   0.000000   0.000000   0.000000
    13  H    0.000000   0.000000   0.000000   0.000000   0.000000   0.000000
    14  C    0.000000   0.000000   0.000000   0.000000   0.000000   0.000000
    15  C    0.000000   0.000000   0.000000   0.000000   0.000000   0.000000
    16  H    0.000000   0.000000   0.000000   0.000000   0.000000   0.000000
    17  H    0.000000   0.000000   0.000000   0.000000   0.000000   0.000000
    18  C    0.000000   0.000000   0.000000   0.000000   0.000000   0.000000
    19  H    0.879013   0.000000   0.000000   0.000000   0.000000   0.000000
    20  O    0.000000   6.398540   0.000000   0.000000   0.000000   0.000000
    21  N    0.000000   0.000000   5.055583   0.000000   0.000000   0.000000
    22  H    0.000000   0.000000   0.000000   0.870648   0.000000   0.000000
    23  H    0.000000   0.000000   0.000000   0.000000   0.910197   0.000000
    24  H    0.000000   0.000000   0.000000   0.000000   0.000000   0.923374
    25  H    0.000000   0.000000   0.000000   0.000000   0.000000   0.000000
    26  H    0.000000   0.000000   0.000000   0.000000   0.000000   0.000000
    27  C    0.000000   0.000000   0.000000   0.000000   0.000000   0.000000
    28  H    0.000000   0.000000   0.000000   0.000000   0.000000   0.000000
    29  H    0.000000   0.000000   0.000000   0.000000   0.000000   0.000000
    30  H    0.000000   0.000000   0.000000   0.000000   0.000000   0.000000
    31  C    0.000000   0.000000   0.000000   0.000000   0.000000   0.000000
    32  H    0.000000   0.000000   0.000000   0.000000   0.000000   0.000000
    33  H    0.000000   0.000000   0.000000   0.000000   0.000000   0.000000
    34  H    0.000000   0.000000   0.000000   0.000000   0.000000   0.000000
             25         26         27         28         29         30
     1  C    0.000000   0.000000   0.000000   0.000000   0.000000   0.000000
     2  C    0.000000   0.000000   0.000000   0.000000   0.000000   0.000000
     3  C    0.000000   0.000000   0.000000   0.000000   0.000000   0.000000
     4  C    0.000000   0.000000   0.000000   0.000000   0.000000   0.000000
     5  N    0.000000   0.000000   0.000000   0.000000   0.000000   0.000000
     6  C    0.000000   0.000000   0.000000   0.000000   0.000000   0.000000
     7  O    0.000000   0.000000   0.000000   0.000000   0.000000   0.000000
     8  O    0.000000   0.000000   0.000000   0.000000   0.000000   0.000000
     9  C    0.000000   0.000000   0.000000   0.000000   0.000000   0.000000
    10  H    0.000000   0.000000   0.000000   0.000000   0.000000   0.000000
    11  H    0.000000   0.000000   0.000000   0.000000   0.000000   0.000000
    12  H    0.000000   0.000000   0.000000   0.000000   0.000000   0.000000
    13  H    0.000000   0.000000   0.000000   0.000000   0.000000   0.000000
    14  C    0.000000   0.000000   0.000000   0.000000   0.000000   0.000000
    15  C    0.000000   0.000000   0.000000   0.000000   0.000000   0.000000
    16  H    0.000000   0.000000   0.000000   0.000000   0.000000   0.000000
    17  H    0.000000   0.000000   0.000000   0.000000   0.000000   0.000000
    18  C    0.000000   0.000000   0.000000   0.000000   0.000000   0.000000
    19  H    0.000000   0.000000   0.000000   0.000000   0.000000   0.000000
    20  O    0.000000   0.000000   0.000000   0.000000   0.000000   0.000000
    21  N    0.000000   0.000000   0.000000   0.000000   0.000000   0.000000
    22  H    0.000000   0.000000   0.000000   0.000000   0.000000   0.000000
    23  H    0.000000   0.000000   0.000000   0.000000   0.000000   0.000000
    24  H    0.000000   0.000000   0.000000   0.000000   0.000000   0.000000
    25  H    0.902380   0.000000   0.000000   0.000000   0.000000   0.000000
    26  H    0.000000   0.890001   0.000000   0.000000   0.000000   0.000000
    27  C    0.000000   0.000000   4.097374   0.000000   0.000000   0.000000
    28  H    0.000000   0.000000   0.000000   0.943700   0.000000   0.000000
    29  H    0.000000   0.000000   0.000000   0.000000   0.950822   0.000000
    30  H    0.000000   0.000000   0.000000   0.000000   0.000000   0.955552
    31  C    0.000000   0.000000   0.000000   0.000000   0.000000   0.000000
    32  H    0.000000   0.000000   0.000000   0.000000   0.000000   0.000000
    33  H    0.000000   0.000000   0.000000   0.000000   0.000000   0.000000
    34  H    0.000000   0.000000   0.000000   0.000000   0.000000   0.000000
             31         32         33         34
     1  C    0.000000   0.000000   0.000000   0.000000
     2  C    0.000000   0.000000   0.000000   0.000000
     3  C    0.000000   0.000000   0.000000   0.000000
     4  C    0.000000   0.000000   0.000000   0.000000
     5  N    0.000000   0.000000   0.000000   0.000000
     6  C    0.000000   0.000000   0.000000   0.000000
     7  O    0.000000   0.000000   0.000000   0.000000
     8  O    0.000000   0.000000   0.000000   0.000000
     9  C    0.000000   0.000000   0.000000   0.000000
    10  H    0.000000   0.000000   0.000000   0.000000
    11  H    0.000000   0.000000   0.000000   0.000000
    12  H    0.000000   0.000000   0.000000   0.000000
    13  H    0.000000   0.000000   0.000000   0.000000
    14  C    0.000000   0.000000   0.000000   0.000000
    15  C    0.000000   0.000000   0.000000   0.000000
    16  H    0.000000   0.000000   0.000000   0.000000
    17  H    0.000000   0.000000   0.000000   0.000000
    18  C    0.000000   0.000000   0.000000   0.000000
    19  H    0.000000   0.000000   0.000000   0.000000
    20  O    0.000000   0.000000   0.000000   0.000000
    21  N    0.000000   0.000000   0.000000   0.000000
    22  H    0.000000   0.000000   0.000000   0.000000
    23  H    0.000000   0.000000   0.000000   0.000000
    24  H    0.000000   0.000000   0.000000   0.000000
    25  H    0.000000   0.000000   0.000000   0.000000
    26  H    0.000000   0.000000   0.000000   0.000000
    27  C    0.000000   0.000000   0.000000   0.000000
    28  H    0.000000   0.000000   0.000000   0.000000
    29  H    0.000000   0.000000   0.000000   0.000000
    30  H    0.000000   0.000000   0.000000   0.000000
    31  C    4.080006   0.000000   0.000000   0.000000
    32  H    0.000000   0.936946   0.000000   0.000000
    33  H    0.000000   0.000000   0.956148   0.000000
    34  H    0.000000   0.000000   0.000000   0.955971
 Mulliken atomic charges:
              1
     1  C   -0.162668
     2  C   -0.069076
     3  C   -0.196737
     4  C   -0.052378
     5  N    0.085096
     6  C    0.346649
     7  O   -0.411143
     8  O   -0.252988
     9  C    0.085103
    10  H    0.041751
    11  H    0.036260
    12  H    0.048138
    13  H    0.103865
    14  C   -0.030953
    15  C   -0.309253
    16  H    0.089206
    17  H    0.069117
    18  C    0.286268
    19  H    0.120987
    20  O   -0.398540
    21  N   -0.055583
    22  H    0.129352
    23  H    0.089803
    24  H    0.076626
    25  H    0.097620
    26  H    0.109999
    27  C   -0.097374
    28  H    0.056300
    29  H    0.049178
    30  H    0.044448
    31  C   -0.080006
    32  H    0.063054
    33  H    0.043852
    34  H    0.044029
 Sum of Mulliken charges=   0.00000
 Atomic charges with hydrogens summed into heavy atoms:
              1
     1  C    0.003761
     2  C    0.028544
     3  C   -0.086739
     4  C    0.076973
     5  N    0.188961
     6  C    0.346649
     7  O   -0.411143
     8  O   -0.252988
     9  C    0.211252
    10  H    0.000000
    11  H    0.000000
    12  H    0.000000
    13  H    0.000000
    14  C    0.127370
    15  C   -0.188266
    16  H    0.000000
    17  H    0.000000
    18  C    0.286268
    19  H    0.000000
    20  O   -0.398540
    21  N   -0.055583
    22  H    0.000000
    23  H    0.000000
    24  H    0.000000
    25  H    0.000000
    26  H    0.000000
    27  C    0.052552
    28  H    0.000000
    29  H    0.000000
    30  H    0.000000
    31  C    0.070929
    32  H    0.000000
    33  H    0.000000
    34  H    0.000000
 Sum of Mulliken charges=   0.00000
 1\1\GINC-WOLF01\FTS\RPM3\ZDO\C11H18N2O3\XDANEK7\16-Dec-2012\0\\# PM3 O
 pt=(CalcFC,TS,NoEigenTest,MaxCycle=60) NoSymm\\produkt\\0,1\C,-2.51353
 66233,3.0240614619,0.6885179933\C,-2.9494745433,2.9324289541,-0.623583
 6271\C,-2.6518512798,1.853113479,-1.4531417974\C,-2.0365348369,0.67242
 75385,-1.0605951885\N,-2.4205035625,-0.0300780385,0.111681099\C,-1.964
 6711286,-1.3606806567,0.3364367944\O,-1.4569416472,-2.1073071655,-0.48
 56796563\O,-2.263790991,-1.7427852896,1.6112496365\C,-1.8735618339,-3.
 0393341149,2.0149937448\H,-0.7900715839,-3.1789105692,1.9349865247\H,-
 2.3928103448,-3.8132465969,1.4401969801\H,-2.1888555005,-3.0587759183,
 3.0611592028\H,-2.6286764034,0.5250147528,0.9183508874\C,-0.499747731,
 2.9645691307,0.3746802229\C,-0.1386852787,1.8908549195,-0.4304364967\H
 ,-0.2467017048,2.9497419948,1.4382609284\H,-0.4824964791,3.9666863828,
 -0.0601241625\C,0.6106749397,0.752493009,0.1405089431\H,0.0028855592,2
 .0755650039,-1.5099477412\O,0.5996230432,0.4549133531,1.3315389806\N,1
 .4757428729,0.0039041478,-0.7387086905\H,-1.5376633338,0.0460592455,-1
 .8308888729\H,-2.5140797212,2.1755470369,1.3776330995\H,-2.6559248692,
 3.9655041242,1.2215618815\H,-3.3667920071,3.8288183449,-1.1004786557\H
 ,-2.7278174667,2.0271653556,-2.5348535618\C,1.0641065726,-0.0672747537
 ,-2.1595535384\H,1.8184809166,-0.6053169141,-2.7460851619\H,0.97382775
 7,0.957235868,-2.5562417294\H,0.0847444009,-0.564399976,-2.2941731166\
 C,2.0610449775,-1.2526970346,-0.2203367846\H,2.5646842226,-1.058940743
 3,0.7357710527\H,2.8106313357,-1.6223675594,-0.9324583928\H,1.30832727
 27,-2.0399257724,-0.0637987972\\Version=EM64L-G03RevE.01\HF=-0.0728825
 \RMSD=0.000e+00\RMSF=1.606e-06\Thermal=0.\Dipole=-0.5404829,0.3919622,
 -0.3960797\PG=C01 [X(C11H18N2O3)]\\@


 "ANNA, YOU MUSN'T SPEAK OF OXIDIZED MURIATIC ACID
 ANYMORE, FROM NOW ON YOU MUST SAY CHLORINE."
   -- JENS JACOB BERZELIUS, IN 1820, TO HIS COOK, WHO HAD
 COMPLAINED OF THE SMELL OF THE FLASK SHE WAS CLEANING.
 Job cpu time:  0 days  0 hours  0 minutes 32.0 seconds.
 File lengths (MBytes):  RWF=     13 Int=      0 D2E=      0 Chk=      7 Scr=      1
 Normal termination of Gaussian 03 at Sun Dec 16 20:50:09 2012.
