 Entering Gaussian System, Link 0=g03
 Input=reaktant2.com
 Output=reaktant2.log
 Initial command:
 /software/ncbr/softrepo/secret/gaussian/03.E1/x86_64/node/l1.exe /scratch/xdanek7/QM/03_F_analyza/reaktant2/Gau-13754.inp -scrdir=/scratch/xdanek7/QM/03_F_analyza/reaktant2/
 Entering Link 1 = /software/ncbr/softrepo/secret/gaussian/03.E1/x86_64/node/l1.exe PID=     13756.
  
 Copyright (c) 1988,1990,1992,1993,1995,1998,2003,2004,2007, Gaussian, Inc.
                  All Rights Reserved.
  
 This is the Gaussian(R) 03 program.  It is based on the
 the Gaussian(R) 98 system (copyright 1998, Gaussian, Inc.),
 the Gaussian(R) 94 system (copyright 1995, Gaussian, Inc.),
 the Gaussian 92(TM) system (copyright 1992, Gaussian, Inc.),
 the Gaussian 90(TM) system (copyright 1990, Gaussian, Inc.),
 the Gaussian 88(TM) system (copyright 1988, Gaussian, Inc.),
 the Gaussian 86(TM) system (copyright 1986, Carnegie Mellon
 University), and the Gaussian 82(TM) system (copyright 1983,
 Carnegie Mellon University). Gaussian is a federally registered
 trademark of Gaussian, Inc.
  
 This software contains proprietary and confidential information,
 including trade secrets, belonging to Gaussian, Inc.
  
 This software is provided under written license and may be
 used, copied, transmitted, or stored only in accord with that
 written license.
  
 The following legend is applicable only to US Government
 contracts under FAR:
  
                    RESTRICTED RIGHTS LEGEND
  
 Use, reproduction and disclosure by the US Government is
 subject to restrictions as set forth in subparagraphs (a)
 and (c) of the Commercial Computer Software - Restricted
 Rights clause in FAR 52.227-19.
  
 Gaussian, Inc.
 340 Quinnipiac St., Bldg. 40, Wallingford CT 06492
  
  
 ---------------------------------------------------------------
 Warning -- This program may not be used in any manner that
 competes with the business of Gaussian, Inc. or will provide
 assistance to any competitor of Gaussian, Inc.  The licensee
 of this program is prohibited from giving any competitor of
 Gaussian, Inc. access to this program.  By using this program,
 the user acknowledges that Gaussian, Inc. is engaged in the
 business of creating and licensing software in the field of
 computational chemistry and represents and warrants to the
 licensee that it is not a competitor of Gaussian, Inc. and that
 it will not use this program in any manner prohibited above.
 ---------------------------------------------------------------
  

 Cite this work as:
 Gaussian 03, Revision E.01,
 M. J. Frisch, G. W. Trucks, H. B. Schlegel, G. E. Scuseria, 
 M. A. Robb, J. R. Cheeseman, J. A. Montgomery, Jr., T. Vreven, 
 K. N. Kudin, J. C. Burant, J. M. Millam, S. S. Iyengar, J. Tomasi, 
 V. Barone, B. Mennucci, M. Cossi, G. Scalmani, N. Rega, 
 G. A. Petersson, H. Nakatsuji, M. Hada, M. Ehara, K. Toyota, 
 R. Fukuda, J. Hasegawa, M. Ishida, T. Nakajima, Y. Honda, O. Kitao, 
 H. Nakai, M. Klene, X. Li, J. E. Knox, H. P. Hratchian, J. B. Cross, 
 V. Bakken, C. Adamo, J. Jaramillo, R. Gomperts, R. E. Stratmann, 
 O. Yazyev, A. J. Austin, R. Cammi, C. Pomelli, J. W. Ochterski, 
 P. Y. Ayala, K. Morokuma, G. A. Voth, P. Salvador, J. J. Dannenberg, 
 V. G. Zakrzewski, S. Dapprich, A. D. Daniels, M. C. Strain, 
 O. Farkas, D. K. Malick, A. D. Rabuck, K. Raghavachari, 
 J. B. Foresman, J. V. Ortiz, Q. Cui, A. G. Baboul, S. Clifford, 
 J. Cioslowski, B. B. Stefanov, G. Liu, A. Liashenko, P. Piskorz, 
 I. Komaromi, R. L. Martin, D. J. Fox, T. Keith, M. A. Al-Laham, 
 C. Y. Peng, A. Nanayakkara, M. Challacombe, P. M. W. Gill, 
 B. Johnson, W. Chen, M. W. Wong, C. Gonzalez, and J. A. Pople, 
 Gaussian, Inc., Wallingford CT, 2004.
 
 ******************************************
 Gaussian 03:  EM64L-G03RevE.01 11-Sep-2007
                16-Dec-2012 
 ******************************************
 ---------------------
 # PM3 Opt Freq NoSymm
 ---------------------
 1/14=-1,18=50,26=3,38=1/1,3;
 2/9=110,15=1,17=6,18=5,40=1/2;
 3/5=2,11=9,12=1,16=1,25=1,30=1/1;
 4/5=3,11=1,20=7,22=1,24=3,35=1/1,2;
 6/7=2,8=2,9=2,10=2/1;
 7/30=1/16;
 1/14=-1,18=50/3(3);
 2/9=110,15=1/2;
 6/7=2,8=2,9=2,10=2/1;
 99//99;
 2/9=110,15=1/2;
 3/5=2,11=9,12=1,16=1,25=1,30=1/1;
 4/5=5,11=1,16=3,20=7,22=1,24=3,35=1/1,2;
 7/30=1/16;
 1/14=-1,18=50/3(-4);
 2/9=110,15=1/2;
 6/7=2,8=2,9=2,10=2/1;
 99//99;
 ---------
 reaktant2
 ---------
 Symbolic Z-matrix:
 Charge =  0 Multiplicity = 1
 C                    -3.99038   0.1383    1.23111 
 C                    -2.79052   0.6718    1.02276 
 H                    -4.12064  -0.90358   1.50982 
 H                    -4.9179    0.69959   1.14009 
 C                    -2.61119   2.09824   0.65058 
 H                    -1.87419   0.06924   1.12584 
 O                    -3.53428   2.89613   0.56442 
 N                    -1.26793   2.59034   0.47316 
 C                    -0.26106   1.65684  -0.07779 
 H                    -0.39201   0.65335   0.35766 
 H                     0.74245   2.01523   0.18739 
 H                    -0.31774   1.57007  -1.17279 
 C                    -1.10246   3.977    -0.0178 
 H                    -1.70945   4.66343   0.58701 
 H                    -1.39497   4.09229  -1.07167 
 H                    -0.04931   4.27032   0.08523 
 

 GradGradGradGradGradGradGradGradGradGradGradGradGradGradGradGradGradGrad
 Berny optimization.
 Initialization pass.
                           ----------------------------
                           !    Initial Parameters    !
                           ! (Angstroms and Degrees)  !
 --------------------------                            --------------------------
 ! Name  Definition              Value          Derivative Info.                !
 --------------------------------------------------------------------------------
 ! R1    R(1,2)                  1.3295         estimate D2E/DX2                !
 ! R2    R(1,3)                  1.0864         estimate D2E/DX2                !
 ! R3    R(1,4)                  1.0879         estimate D2E/DX2                !
 ! R4    R(2,5)                  1.4851         estimate D2E/DX2                !
 ! R5    R(2,6)                  1.1015         estimate D2E/DX2                !
 ! R6    R(5,7)                  1.2232         estimate D2E/DX2                !
 ! R7    R(5,8)                  1.4415         estimate D2E/DX2                !
 ! R8    R(8,9)                  1.4794         estimate D2E/DX2                !
 ! R9    R(8,13)                 1.4803         estimate D2E/DX2                !
 ! R10   R(9,10)                 1.1017         estimate D2E/DX2                !
 ! R11   R(9,11)                 1.0981         estimate D2E/DX2                !
 ! R12   R(9,12)                 1.0999         estimate D2E/DX2                !
 ! R13   R(13,14)                1.0979         estimate D2E/DX2                !
 ! R14   R(13,15)                1.0998         estimate D2E/DX2                !
 ! R15   R(13,16)                1.0981         estimate D2E/DX2                !
 ! A1    A(2,1,3)              122.2254         estimate D2E/DX2                !
 ! A2    A(2,1,4)              123.316          estimate D2E/DX2                !
 ! A3    A(3,1,4)              114.4585         estimate D2E/DX2                !
 ! A4    A(1,2,5)              122.2537         estimate D2E/DX2                !
 ! A5    A(1,2,6)              121.1024         estimate D2E/DX2                !
 ! A6    A(5,2,6)              116.6429         estimate D2E/DX2                !
 ! A7    A(2,5,7)              123.5793         estimate D2E/DX2                !
 ! A8    A(2,5,8)              118.1165         estimate D2E/DX2                !
 ! A9    A(7,5,8)              118.156          estimate D2E/DX2                !
 ! A10   A(5,8,9)              117.6855         estimate D2E/DX2                !
 ! A11   A(5,8,13)             117.6951         estimate D2E/DX2                !
 ! A12   A(9,8,13)             113.0468         estimate D2E/DX2                !
 ! A13   A(8,9,10)             110.2824         estimate D2E/DX2                !
 ! A14   A(8,9,11)             109.0316         estimate D2E/DX2                !
 ! A15   A(8,9,12)             112.6714         estimate D2E/DX2                !
 ! A16   A(10,9,11)            108.0871         estimate D2E/DX2                !
 ! A17   A(10,9,12)            108.3915         estimate D2E/DX2                !
 ! A18   A(11,9,12)            108.2553         estimate D2E/DX2                !
 ! A19   A(8,13,14)            109.948          estimate D2E/DX2                !
 ! A20   A(8,13,15)            112.7241         estimate D2E/DX2                !
 ! A21   A(8,13,16)            109.0455         estimate D2E/DX2                !
 ! A22   A(14,13,15)           108.3785         estimate D2E/DX2                !
 ! A23   A(14,13,16)           108.1517         estimate D2E/DX2                !
 ! A24   A(15,13,16)           108.4815         estimate D2E/DX2                !
 ! D1    D(3,1,2,5)           -179.5831         estimate D2E/DX2                !
 ! D2    D(3,1,2,6)              0.0398         estimate D2E/DX2                !
 ! D3    D(4,1,2,5)              0.335          estimate D2E/DX2                !
 ! D4    D(1,2,5,7)              3.2421         estimate D2E/DX2                !
 ! D5    D(1,2,5,8)            178.7267         estimate D2E/DX2                !
 ! D6    D(6,2,5,7)           -176.3966         estimate D2E/DX2                !
 ! D7    D(2,5,8,9)             33.7327         estimate D2E/DX2                !
 ! D8    D(2,5,8,13)           174.5117         estimate D2E/DX2                !
 ! D9    D(7,5,8,9)           -150.5336         estimate D2E/DX2                !
 ! D10   D(5,8,9,10)           -40.5204         estimate D2E/DX2                !
 ! D11   D(5,8,9,11)          -159.0493         estimate D2E/DX2                !
 ! D12   D(13,8,9,10)          176.9559         estimate D2E/DX2                !
 ! D13   D(5,8,13,14)           50.6172         estimate D2E/DX2                !
 ! D14   D(5,8,13,15)          -70.4235         estimate D2E/DX2                !
 ! D15   D(9,8,13,14)         -166.863          estimate D2E/DX2                !
 --------------------------------------------------------------------------------
 Trust Radius=3.00D-01 FncErr=1.00D-07 GrdErr=1.00D-06
 Number of steps in this run=  64 maximum allowed number of steps= 100.
 GradGradGradGradGradGradGradGradGradGradGradGradGradGradGradGradGradGrad

                          Input orientation:                          
 ---------------------------------------------------------------------
 Center     Atomic     Atomic              Coordinates (Angstroms)
 Number     Number      Type              X           Y           Z
 ---------------------------------------------------------------------
    1          6             0       -3.990376    0.138300    1.231111
    2          6             0       -2.790515    0.671796    1.022764
    3          1             0       -4.120639   -0.903579    1.509822
    4          1             0       -4.917899    0.699593    1.140092
    5          6             0       -2.611191    2.098238    0.650580
    6          1             0       -1.874193    0.069243    1.125837
    7          8             0       -3.534283    2.896133    0.564422
    8          7             0       -1.267933    2.590336    0.473159
    9          6             0       -0.261061    1.656837   -0.077785
   10          1             0       -0.392011    0.653346    0.357657
   11          1             0        0.742448    2.015231    0.187387
   12          1             0       -0.317742    1.570072   -1.172786
   13          6             0       -1.102462    3.976999   -0.017800
   14          1             0       -1.709448    4.663433    0.587010
   15          1             0       -1.394971    4.092292   -1.071671
   16          1             0       -0.049313    4.270322    0.085231
 ---------------------------------------------------------------------
                    Distance matrix (angstroms):
                    1          2          3          4          5
     1  C    0.000000
     2  C    1.329546   0.000000
     3  H    1.086352   2.118552   0.000000
     4  H    1.087949   2.130798   1.828246   0.000000
     5  C    2.465872   1.485064   3.468088   2.741666   0.000000
     6  H    2.119925   1.101517   2.477972   3.108326   2.210397
     7  O    2.873698   2.389758   3.959218   2.659056   1.223176
     8  N    3.741479   2.510203   4.628179   4.164368   1.441520
     9  C    4.234023   2.929104   4.896179   4.907716   2.499692
    10  H    3.738506   2.489082   4.201686   4.593257   2.664259
    11  H    5.197293   3.870982   5.823908   5.888810   3.386493
    12  H    4.617026   3.426652   5.270423   5.221933   2.977168
    13  C    4.963410   3.854434   5.938271   5.161363   2.500548
    14  H    5.108261   4.158335   6.136534   5.129531   2.719817
    15  H    5.260512   4.246645   6.249168   5.367804   2.901998
    16  H    5.823970   4.619799   6.736053   6.129108   3.405993
                    6          7          8          9         10
     6  H    0.000000
     7  O    3.326018   0.000000
     8  N    2.673845   2.288708   0.000000
     9  C    2.563466   3.558408   1.479443   0.000000
    10  H    1.768655   3.866099   2.128969   1.101704   0.000000
    11  H    3.393283   4.382758   2.110460   1.098086   1.780652
    12  H    3.155740   3.888761   2.157067   1.099895   1.785541
    13  C    4.144156   2.724153   1.480289   2.468746   3.419412
    14  H    4.628613   2.540449   2.122647   3.402851   4.227179
    15  H    4.609080   2.946906   2.158358   2.864438   3.856845
    16  H    4.697032   3.776643   2.111368   2.627112   3.643374
                   11         12         13         14         15
    11  H    0.000000
    12  H    1.781078   0.000000
    13  C    2.700801   2.782638   0.000000
    14  H    3.631042   3.821336   1.097916   0.000000
    15  H    3.235424   2.744493   1.099772   1.782223   0.000000
    16  H    2.392228   2.990988   1.098079   1.778304   1.783511
                   16
    16  H    0.000000
 Symmetry turned off by external request.
 Stoichiometry    C5H9NO
 Framework group  C1[X(C5H9NO)]
 Deg. of freedom    42
 Full point group                 C1
 Rotational constants (GHZ):      4.7851850      1.9203357      1.4115282
 Standard basis: VSTO-3G (5D, 7F)
 Integral buffers will be    131072 words long.
 Raffenetti 1 integral format.
 Two-electron integral symmetry is turned off.
    37 basis functions,   111 primitive gaussians,    37 cartesian basis functions
    20 alpha electrons       20 beta electrons
       nuclear repulsion energy       162.9761849724 Hartrees.
 NAtoms=   16 NActive=   16 NUniq=   16 SFac= 7.50D-01 NAtFMM=   80 NAOKFM=F Big=F
 Simple Huckel Guess.
 RHF-PM3 calculation of energy and first derivatives.
 MO and density RWFs will be updated without deorthogonalization.
 Closed-shell calculation:      20 occupied levels.
 NNHCO=    0.
 References:
  H: (PM3): J. J. P. STEWART, J. COMP. CHEM.     10, 209 (1989).
  C: (PM3): J. J. P. STEWART, J. COMP. CHEM.     10, 209 (1989).
  N: (PM3): J. J. P. STEWART, J. COMP. CHEM.     10, 209 (1989).
  O: (PM3): J. J. P. STEWART, J. COMP. CHEM.     10, 209 (1989).
 Ext34=T Pulay=F Camp-King=F BShift= 0.00D+00
 It=  1 PL= 0.102D+01 DiagD=T ESCF=      8.022031 Diff= 0.369D+01 RMSDP= 0.242D+00.
 It=  2 PL= 0.564D-01 DiagD=T ESCF=     -0.471526 Diff=-0.849D+01 RMSDP= 0.771D-02.
 It=  3 PL= 0.197D-01 DiagD=F ESCF=     -1.039329 Diff=-0.568D+00 RMSDP= 0.435D-02.
 It=  4 PL= 0.512D-02 DiagD=F ESCF=     -1.161611 Diff=-0.122D+00 RMSDP= 0.850D-03.
 It=  5 PL= 0.197D-02 DiagD=F ESCF=     -1.130833 Diff= 0.308D-01 RMSDP= 0.473D-03.
 3-point extrapolation.
 It=  6 PL= 0.938D-03 DiagD=F ESCF=     -1.132248 Diff=-0.141D-02 RMSDP= 0.603D-03.
 It=  7 PL= 0.667D-02 DiagD=F ESCF=     -1.140919 Diff=-0.867D-02 RMSDP= 0.112D-02.
 It=  8 PL= 0.251D-02 DiagD=F ESCF=     -1.128324 Diff= 0.126D-01 RMSDP= 0.694D-03.
 It=  9 PL= 0.179D-02 DiagD=F ESCF=     -1.131318 Diff=-0.299D-02 RMSDP= 0.100D-02.
 It= 10 PL= 0.439D-03 DiagD=F ESCF=     -1.135314 Diff=-0.400D-02 RMSDP= 0.412D-04.
 It= 11 PL= 0.138D-03 DiagD=F ESCF=     -1.132996 Diff= 0.232D-02 RMSDP= 0.157D-04.
 It= 12 PL= 0.657D-04 DiagD=F ESCF=     -1.132998 Diff=-0.210D-05 RMSDP= 0.164D-04.
 It= 13 PL= 0.873D-05 DiagD=F ESCF=     -1.132999 Diff=-0.152D-05 RMSDP= 0.209D-05.
 It= 14 PL= 0.538D-05 DiagD=F ESCF=     -1.132999 Diff= 0.682D-06 RMSDP= 0.122D-05.
 It= 15 PL= 0.338D-05 DiagD=F ESCF=     -1.132999 Diff=-0.105D-07 RMSDP= 0.191D-05.
 It= 16 PL= 0.632D-06 DiagD=F ESCF=     -1.132999 Diff=-0.165D-07 RMSDP= 0.171D-06.
 It= 17 PL= 0.457D-06 DiagD=F ESCF=     -1.132999 Diff= 0.915D-08 RMSDP= 0.943D-07.
 Energy=   -0.041637747141 NIter=  18.
 Dipole moment=       0.752968      -0.817493      -0.234705

 **********************************************************************

            Population analysis using the SCF density.

 **********************************************************************

 Alpha  occ. eigenvalues --   -1.42444  -1.25888  -1.20233  -1.01576  -0.91335
 Alpha  occ. eigenvalues --   -0.78214  -0.68158  -0.65866  -0.61505  -0.58251
 Alpha  occ. eigenvalues --   -0.56292  -0.54707  -0.51486  -0.50645  -0.49855
 Alpha  occ. eigenvalues --   -0.48251  -0.46449  -0.39995  -0.39809  -0.34718
 Alpha virt. eigenvalues --    0.00163   0.06007   0.07097   0.10693   0.12750
 Alpha virt. eigenvalues --    0.13022   0.13145   0.13987   0.14241   0.14691
 Alpha virt. eigenvalues --    0.15447   0.16151   0.18155   0.18650   0.19000
 Alpha virt. eigenvalues --    0.21578   0.26669
          Condensed to atoms (all electrons):
              1          2          3          4          5          6
     1  C    4.056655   0.000000   0.000000   0.000000   0.000000   0.000000
     2  C    0.000000   4.211366   0.000000   0.000000   0.000000   0.000000
     3  H    0.000000   0.000000   0.924890   0.000000   0.000000   0.000000
     4  H    0.000000   0.000000   0.000000   0.903098   0.000000   0.000000
     5  C    0.000000   0.000000   0.000000   0.000000   3.712999   0.000000
     6  H    0.000000   0.000000   0.000000   0.000000   0.000000   0.883702
     7  O    0.000000   0.000000   0.000000   0.000000   0.000000   0.000000
     8  N    0.000000   0.000000   0.000000   0.000000   0.000000   0.000000
     9  C    0.000000   0.000000   0.000000   0.000000   0.000000   0.000000
    10  H    0.000000   0.000000   0.000000   0.000000   0.000000   0.000000
    11  H    0.000000   0.000000   0.000000   0.000000   0.000000   0.000000
    12  H    0.000000   0.000000   0.000000   0.000000   0.000000   0.000000
    13  C    0.000000   0.000000   0.000000   0.000000   0.000000   0.000000
    14  H    0.000000   0.000000   0.000000   0.000000   0.000000   0.000000
    15  H    0.000000   0.000000   0.000000   0.000000   0.000000   0.000000
    16  H    0.000000   0.000000   0.000000   0.000000   0.000000   0.000000
              7          8          9         10         11         12
     1  C    0.000000   0.000000   0.000000   0.000000   0.000000   0.000000
     2  C    0.000000   0.000000   0.000000   0.000000   0.000000   0.000000
     3  H    0.000000   0.000000   0.000000   0.000000   0.000000   0.000000
     4  H    0.000000   0.000000   0.000000   0.000000   0.000000   0.000000
     5  C    0.000000   0.000000   0.000000   0.000000   0.000000   0.000000
     6  H    0.000000   0.000000   0.000000   0.000000   0.000000   0.000000
     7  O    6.364994   0.000000   0.000000   0.000000   0.000000   0.000000
     8  N    0.000000   5.063113   0.000000   0.000000   0.000000   0.000000
     9  C    0.000000   0.000000   4.085629   0.000000   0.000000   0.000000
    10  H    0.000000   0.000000   0.000000   0.946380   0.000000   0.000000
    11  H    0.000000   0.000000   0.000000   0.000000   0.949438   0.000000
    12  H    0.000000   0.000000   0.000000   0.000000   0.000000   0.967229
    13  C    0.000000   0.000000   0.000000   0.000000   0.000000   0.000000
    14  H    0.000000   0.000000   0.000000   0.000000   0.000000   0.000000
    15  H    0.000000   0.000000   0.000000   0.000000   0.000000   0.000000
    16  H    0.000000   0.000000   0.000000   0.000000   0.000000   0.000000
             13         14         15         16
     1  C    0.000000   0.000000   0.000000   0.000000
     2  C    0.000000   0.000000   0.000000   0.000000
     3  H    0.000000   0.000000   0.000000   0.000000
     4  H    0.000000   0.000000   0.000000   0.000000
     5  C    0.000000   0.000000   0.000000   0.000000
     6  H    0.000000   0.000000   0.000000   0.000000
     7  O    0.000000   0.000000   0.000000   0.000000
     8  N    0.000000   0.000000   0.000000   0.000000
     9  C    0.000000   0.000000   0.000000   0.000000
    10  H    0.000000   0.000000   0.000000   0.000000
    11  H    0.000000   0.000000   0.000000   0.000000
    12  H    0.000000   0.000000   0.000000   0.000000
    13  C    4.074586   0.000000   0.000000   0.000000
    14  H    0.000000   0.933580   0.000000   0.000000
    15  H    0.000000   0.000000   0.966010   0.000000
    16  H    0.000000   0.000000   0.000000   0.956331
 Mulliken atomic charges:
              1
     1  C   -0.056655
     2  C   -0.211366
     3  H    0.075110
     4  H    0.096902
     5  C    0.287001
     6  H    0.116298
     7  O   -0.364994
     8  N   -0.063113
     9  C   -0.085629
    10  H    0.053620
    11  H    0.050562
    12  H    0.032771
    13  C   -0.074586
    14  H    0.066420
    15  H    0.033990
    16  H    0.043669
 Sum of Mulliken charges=   0.00000
 Atomic charges with hydrogens summed into heavy atoms:
              1
     1  C    0.115357
     2  C   -0.095068
     3  H    0.000000
     4  H    0.000000
     5  C    0.287001
     6  H    0.000000
     7  O   -0.364994
     8  N   -0.063113
     9  C    0.051324
    10  H    0.000000
    11  H    0.000000
    12  H    0.000000
    13  C    0.069493
    14  H    0.000000
    15  H    0.000000
    16  H    0.000000
 Sum of Mulliken charges=   0.00000
 -------------------------------------------------------------------
 Center     Atomic                   Forces (Hartrees/Bohr)
 Number     Number              X              Y              Z
 -------------------------------------------------------------------
    1          6           0.000018185    0.000000177   -0.000008600
    2          6          -0.000013887   -0.000012083    0.000011455
    3          1          -0.000008828    0.000000650    0.000002086
    4          1          -0.000007501   -0.000003756    0.000003468
    5          6           0.000071998    0.000016660   -0.000011029
    6          1          -0.000009861   -0.000007028    0.000001391
    7          8          -0.000015957    0.000012786   -0.000000222
    8          7          -0.000047048   -0.000005118    0.000011836
    9          6          -0.000005321    0.000007254    0.000003389
   10          1           0.000010239    0.000000492   -0.000003812
   11          1           0.000006402   -0.000000557   -0.000001356
   12          1           0.000003294    0.000000795   -0.000001477
   13          6          -0.000007911   -0.000011373   -0.000002504
   14          1           0.000001066   -0.000004173    0.000001307
   15          1           0.000000264    0.000005094   -0.000002785
   16          1           0.000004867    0.000000182   -0.000003147
 -------------------------------------------------------------------
 Cartesian Forces:  Max     0.000071998 RMS     0.000014523

 GradGradGradGradGradGradGradGradGradGradGradGradGradGradGradGradGradGrad
 Berny optimization.
 Internal  Forces:  Max     0.000047449 RMS     0.000013029
 Search for a local minimum.
 Step number   1 out of a maximum of  64
 All quantities printed in internal units (Hartrees-Bohrs-Radians)
 Second derivative matrix not updated -- first step.
 RFO step:  Lambda= 6.13988056D-09.
 Linear search not attempted -- first point.
 Iteration  1 RMS(Cart)=  0.00038816 RMS(Int)=  0.00000006
 Iteration  2 RMS(Cart)=  0.00000007 RMS(Int)=  0.00000000
 Variable       Old X    -DE/DX   Delta X   Delta X   Delta X     New X
                                 (Linear)    (Quad)   (Total)
    R1        2.51248   0.00000   0.00000   0.00000   0.00000   2.51248
    R2        2.05291   0.00000   0.00000   0.00000   0.00000   2.05291
    R3        2.05593   0.00000   0.00000   0.00001   0.00001   2.05594
    R4        2.80636   0.00003   0.00000   0.00008   0.00008   2.80644
    R5        2.08157   0.00000   0.00000  -0.00001  -0.00001   2.08155
    R6        2.31147   0.00002   0.00000   0.00002   0.00002   2.31149
    R7        2.72408  -0.00003   0.00000  -0.00009  -0.00009   2.72399
    R8        2.79574   0.00001   0.00000   0.00002   0.00002   2.79576
    R9        2.79734  -0.00001   0.00000  -0.00002  -0.00002   2.79732
   R10        2.08192   0.00000   0.00000  -0.00001  -0.00001   2.08191
   R11        2.07508   0.00001   0.00000   0.00002   0.00002   2.07510
   R12        2.07850   0.00000   0.00000   0.00000   0.00000   2.07850
   R13        2.07476   0.00000   0.00000  -0.00001  -0.00001   2.07475
   R14        2.07827   0.00000   0.00000   0.00001   0.00001   2.07828
   R15        2.07507   0.00000   0.00000   0.00001   0.00001   2.07508
    A1        2.13324   0.00001   0.00000   0.00004   0.00004   2.13328
    A2        2.15227   0.00000   0.00000   0.00003   0.00003   2.15230
    A3        1.99768  -0.00001   0.00000  -0.00007  -0.00007   1.99761
    A4        2.13373   0.00000   0.00000  -0.00002  -0.00002   2.13371
    A5        2.11364  -0.00001   0.00000  -0.00006  -0.00006   2.11357
    A6        2.03580   0.00001   0.00000   0.00008   0.00008   2.03589
    A7        2.15687  -0.00003   0.00000  -0.00010  -0.00010   2.15676
    A8        2.06152   0.00005   0.00000   0.00019   0.00019   2.06171
    A9        2.06221  -0.00002   0.00000  -0.00009  -0.00009   2.06212
   A10        2.05400   0.00004   0.00000   0.00014   0.00014   2.05414
   A11        2.05417  -0.00002   0.00000  -0.00009  -0.00009   2.05407
   A12        1.97304  -0.00002   0.00000  -0.00010  -0.00010   1.97294
   A13        1.92479   0.00002   0.00000   0.00010   0.00010   1.92489
   A14        1.90296   0.00000   0.00000   0.00000   0.00000   1.90296
   A15        1.96649   0.00000   0.00000   0.00000   0.00000   1.96648
   A16        1.88648  -0.00001   0.00000  -0.00004  -0.00004   1.88643
   A17        1.89179   0.00000   0.00000  -0.00001  -0.00001   1.89178
   A18        1.88941  -0.00001   0.00000  -0.00005  -0.00005   1.88936
   A19        1.91896  -0.00001   0.00000  -0.00004  -0.00004   1.91892
   A20        1.96741   0.00001   0.00000   0.00004   0.00004   1.96745
   A21        1.90320   0.00000   0.00000   0.00000   0.00000   1.90320
   A22        1.89156   0.00000   0.00000  -0.00001  -0.00001   1.89156
   A23        1.88760   0.00001   0.00000   0.00003   0.00003   1.88763
   A24        1.89336   0.00000   0.00000  -0.00003  -0.00003   1.89333
    D1       -3.13432   0.00000   0.00000   0.00002   0.00002  -3.13429
    D2        0.00069   0.00000   0.00000   0.00007   0.00007   0.00077
    D3        0.00585   0.00000   0.00000  -0.00011  -0.00011   0.00573
    D4        0.05659   0.00000   0.00000   0.00011   0.00011   0.05669
    D5        3.11937   0.00000   0.00000   0.00005   0.00005   3.11942
    D6       -3.07870   0.00000   0.00000   0.00006   0.00006  -3.07864
    D7        0.58875   0.00001   0.00000   0.00016   0.00016   0.58891
    D8        3.04580   0.00000   0.00000   0.00006   0.00006   3.04586
    D9       -2.62731   0.00000   0.00000   0.00011   0.00011  -2.62720
   D10       -0.70721   0.00000   0.00000  -0.00023  -0.00023  -0.70745
   D11       -2.77593   0.00000   0.00000  -0.00024  -0.00024  -2.77617
   D12        3.08846   0.00000   0.00000  -0.00013  -0.00013   3.08834
   D13        0.88344   0.00000   0.00000   0.00051   0.00051   0.88395
   D14       -1.22912   0.00000   0.00000   0.00051   0.00051  -1.22861
   D15       -2.91231   0.00001   0.00000   0.00050   0.00050  -2.91181
         Item               Value     Threshold  Converged?
 Maximum Force            0.000047     0.000450     YES
 RMS     Force            0.000013     0.000300     YES
 Maximum Displacement     0.001217     0.001800     YES
 RMS     Displacement     0.000388     0.001200     YES
 Predicted change in Energy=-2.126933D-08
 Optimization completed.
    -- Stationary point found.
                           ----------------------------
                           !   Optimized Parameters   !
                           ! (Angstroms and Degrees)  !
 --------------------------                            --------------------------
 ! Name  Definition              Value          Derivative Info.                !
 --------------------------------------------------------------------------------
 ! R1    R(1,2)                  1.3295         -DE/DX =    0.0                 !
 ! R2    R(1,3)                  1.0864         -DE/DX =    0.0                 !
 ! R3    R(1,4)                  1.0879         -DE/DX =    0.0                 !
 ! R4    R(2,5)                  1.4851         -DE/DX =    0.0                 !
 ! R5    R(2,6)                  1.1015         -DE/DX =    0.0                 !
 ! R6    R(5,7)                  1.2232         -DE/DX =    0.0                 !
 ! R7    R(5,8)                  1.4415         -DE/DX =    0.0                 !
 ! R8    R(8,9)                  1.4794         -DE/DX =    0.0                 !
 ! R9    R(8,13)                 1.4803         -DE/DX =    0.0                 !
 ! R10   R(9,10)                 1.1017         -DE/DX =    0.0                 !
 ! R11   R(9,11)                 1.0981         -DE/DX =    0.0                 !
 ! R12   R(9,12)                 1.0999         -DE/DX =    0.0                 !
 ! R13   R(13,14)                1.0979         -DE/DX =    0.0                 !
 ! R14   R(13,15)                1.0998         -DE/DX =    0.0                 !
 ! R15   R(13,16)                1.0981         -DE/DX =    0.0                 !
 ! A1    A(2,1,3)              122.2254         -DE/DX =    0.0                 !
 ! A2    A(2,1,4)              123.316          -DE/DX =    0.0                 !
 ! A3    A(3,1,4)              114.4585         -DE/DX =    0.0                 !
 ! A4    A(1,2,5)              122.2537         -DE/DX =    0.0                 !
 ! A5    A(1,2,6)              121.1024         -DE/DX =    0.0                 !
 ! A6    A(5,2,6)              116.6429         -DE/DX =    0.0                 !
 ! A7    A(2,5,7)              123.5793         -DE/DX =    0.0                 !
 ! A8    A(2,5,8)              118.1165         -DE/DX =    0.0                 !
 ! A9    A(7,5,8)              118.156          -DE/DX =    0.0                 !
 ! A10   A(5,8,9)              117.6855         -DE/DX =    0.0                 !
 ! A11   A(5,8,13)             117.6951         -DE/DX =    0.0                 !
 ! A12   A(9,8,13)             113.0468         -DE/DX =    0.0                 !
 ! A13   A(8,9,10)             110.2824         -DE/DX =    0.0                 !
 ! A14   A(8,9,11)             109.0316         -DE/DX =    0.0                 !
 ! A15   A(8,9,12)             112.6714         -DE/DX =    0.0                 !
 ! A16   A(10,9,11)            108.0871         -DE/DX =    0.0                 !
 ! A17   A(10,9,12)            108.3915         -DE/DX =    0.0                 !
 ! A18   A(11,9,12)            108.2553         -DE/DX =    0.0                 !
 ! A19   A(8,13,14)            109.948          -DE/DX =    0.0                 !
 ! A20   A(8,13,15)            112.7241         -DE/DX =    0.0                 !
 ! A21   A(8,13,16)            109.0455         -DE/DX =    0.0                 !
 ! A22   A(14,13,15)           108.3785         -DE/DX =    0.0                 !
 ! A23   A(14,13,16)           108.1517         -DE/DX =    0.0                 !
 ! A24   A(15,13,16)           108.4815         -DE/DX =    0.0                 !
 ! D1    D(3,1,2,5)           -179.5831         -DE/DX =    0.0                 !
 ! D2    D(3,1,2,6)              0.0398         -DE/DX =    0.0                 !
 ! D3    D(4,1,2,5)              0.335          -DE/DX =    0.0                 !
 ! D4    D(1,2,5,7)              3.2421         -DE/DX =    0.0                 !
 ! D5    D(1,2,5,8)            178.7267         -DE/DX =    0.0                 !
 ! D6    D(6,2,5,7)           -176.3966         -DE/DX =    0.0                 !
 ! D7    D(2,5,8,9)             33.7327         -DE/DX =    0.0                 !
 ! D8    D(2,5,8,13)           174.5117         -DE/DX =    0.0                 !
 ! D9    D(7,5,8,9)           -150.5336         -DE/DX =    0.0                 !
 ! D10   D(5,8,9,10)           -40.5204         -DE/DX =    0.0                 !
 ! D11   D(5,8,9,11)          -159.0493         -DE/DX =    0.0                 !
 ! D12   D(13,8,9,10)          176.9559         -DE/DX =    0.0                 !
 ! D13   D(5,8,13,14)           50.6172         -DE/DX =    0.0                 !
 ! D14   D(5,8,13,15)          -70.4235         -DE/DX =    0.0                 !
 ! D15   D(9,8,13,14)         -166.863          -DE/DX =    0.0                 !
 --------------------------------------------------------------------------------
 GradGradGradGradGradGradGradGradGradGradGradGradGradGradGradGradGradGrad

                          Input orientation:                          
 ---------------------------------------------------------------------
 Center     Atomic     Atomic              Coordinates (Angstroms)
 Number     Number      Type              X           Y           Z
 ---------------------------------------------------------------------
    1          6             0       -3.990376    0.138300    1.231111
    2          6             0       -2.790515    0.671796    1.022764
    3          1             0       -4.120639   -0.903579    1.509822
    4          1             0       -4.917899    0.699593    1.140092
    5          6             0       -2.611191    2.098238    0.650580
    6          1             0       -1.874193    0.069243    1.125837
    7          8             0       -3.534283    2.896133    0.564422
    8          7             0       -1.267933    2.590336    0.473159
    9          6             0       -0.261061    1.656837   -0.077785
   10          1             0       -0.392011    0.653346    0.357657
   11          1             0        0.742448    2.015231    0.187387
   12          1             0       -0.317742    1.570072   -1.172786
   13          6             0       -1.102462    3.976999   -0.017800
   14          1             0       -1.709448    4.663433    0.587010
   15          1             0       -1.394971    4.092292   -1.071671
   16          1             0       -0.049313    4.270322    0.085231
 ---------------------------------------------------------------------
                    Distance matrix (angstroms):
                    1          2          3          4          5
     1  C    0.000000
     2  C    1.329546   0.000000
     3  H    1.086352   2.118552   0.000000
     4  H    1.087949   2.130798   1.828246   0.000000
     5  C    2.465872   1.485064   3.468088   2.741666   0.000000
     6  H    2.119925   1.101517   2.477972   3.108326   2.210397
     7  O    2.873698   2.389758   3.959218   2.659056   1.223176
     8  N    3.741479   2.510203   4.628179   4.164368   1.441520
     9  C    4.234023   2.929104   4.896179   4.907716   2.499692
    10  H    3.738506   2.489082   4.201686   4.593257   2.664259
    11  H    5.197293   3.870982   5.823908   5.888810   3.386493
    12  H    4.617026   3.426652   5.270423   5.221933   2.977168
    13  C    4.963410   3.854434   5.938271   5.161363   2.500548
    14  H    5.108261   4.158335   6.136534   5.129531   2.719817
    15  H    5.260512   4.246645   6.249168   5.367804   2.901998
    16  H    5.823970   4.619799   6.736053   6.129108   3.405993
                    6          7          8          9         10
     6  H    0.000000
     7  O    3.326018   0.000000
     8  N    2.673845   2.288708   0.000000
     9  C    2.563466   3.558408   1.479443   0.000000
    10  H    1.768655   3.866099   2.128969   1.101704   0.000000
    11  H    3.393283   4.382758   2.110460   1.098086   1.780652
    12  H    3.155740   3.888761   2.157067   1.099895   1.785541
    13  C    4.144156   2.724153   1.480289   2.468746   3.419412
    14  H    4.628613   2.540449   2.122647   3.402851   4.227179
    15  H    4.609080   2.946906   2.158358   2.864438   3.856845
    16  H    4.697032   3.776643   2.111368   2.627112   3.643374
                   11         12         13         14         15
    11  H    0.000000
    12  H    1.781078   0.000000
    13  C    2.700801   2.782638   0.000000
    14  H    3.631042   3.821336   1.097916   0.000000
    15  H    3.235424   2.744493   1.099772   1.782223   0.000000
    16  H    2.392228   2.990988   1.098079   1.778304   1.783511
                   16
    16  H    0.000000
 Symmetry turned off by external request.
 Stoichiometry    C5H9NO
 Framework group  C1[X(C5H9NO)]
 Deg. of freedom    42
 Full point group                 C1
 Rotational constants (GHZ):      4.7851850      1.9203357      1.4115282

 **********************************************************************

            Population analysis using the SCF density.

 **********************************************************************

 Alpha  occ. eigenvalues --   -1.42444  -1.25888  -1.20233  -1.01576  -0.91335
 Alpha  occ. eigenvalues --   -0.78214  -0.68158  -0.65866  -0.61505  -0.58251
 Alpha  occ. eigenvalues --   -0.56292  -0.54707  -0.51486  -0.50645  -0.49855
 Alpha  occ. eigenvalues --   -0.48251  -0.46449  -0.39995  -0.39809  -0.34718
 Alpha virt. eigenvalues --    0.00163   0.06007   0.07097   0.10693   0.12750
 Alpha virt. eigenvalues --    0.13022   0.13145   0.13987   0.14241   0.14691
 Alpha virt. eigenvalues --    0.15447   0.16151   0.18155   0.18650   0.19000
 Alpha virt. eigenvalues --    0.21578   0.26669
          Condensed to atoms (all electrons):
              1          2          3          4          5          6
     1  C    4.056655   0.000000   0.000000   0.000000   0.000000   0.000000
     2  C    0.000000   4.211366   0.000000   0.000000   0.000000   0.000000
     3  H    0.000000   0.000000   0.924890   0.000000   0.000000   0.000000
     4  H    0.000000   0.000000   0.000000   0.903098   0.000000   0.000000
     5  C    0.000000   0.000000   0.000000   0.000000   3.712999   0.000000
     6  H    0.000000   0.000000   0.000000   0.000000   0.000000   0.883702
     7  O    0.000000   0.000000   0.000000   0.000000   0.000000   0.000000
     8  N    0.000000   0.000000   0.000000   0.000000   0.000000   0.000000
     9  C    0.000000   0.000000   0.000000   0.000000   0.000000   0.000000
    10  H    0.000000   0.000000   0.000000   0.000000   0.000000   0.000000
    11  H    0.000000   0.000000   0.000000   0.000000   0.000000   0.000000
    12  H    0.000000   0.000000   0.000000   0.000000   0.000000   0.000000
    13  C    0.000000   0.000000   0.000000   0.000000   0.000000   0.000000
    14  H    0.000000   0.000000   0.000000   0.000000   0.000000   0.000000
    15  H    0.000000   0.000000   0.000000   0.000000   0.000000   0.000000
    16  H    0.000000   0.000000   0.000000   0.000000   0.000000   0.000000
              7          8          9         10         11         12
     1  C    0.000000   0.000000   0.000000   0.000000   0.000000   0.000000
     2  C    0.000000   0.000000   0.000000   0.000000   0.000000   0.000000
     3  H    0.000000   0.000000   0.000000   0.000000   0.000000   0.000000
     4  H    0.000000   0.000000   0.000000   0.000000   0.000000   0.000000
     5  C    0.000000   0.000000   0.000000   0.000000   0.000000   0.000000
     6  H    0.000000   0.000000   0.000000   0.000000   0.000000   0.000000
     7  O    6.364994   0.000000   0.000000   0.000000   0.000000   0.000000
     8  N    0.000000   5.063113   0.000000   0.000000   0.000000   0.000000
     9  C    0.000000   0.000000   4.085629   0.000000   0.000000   0.000000
    10  H    0.000000   0.000000   0.000000   0.946380   0.000000   0.000000
    11  H    0.000000   0.000000   0.000000   0.000000   0.949438   0.000000
    12  H    0.000000   0.000000   0.000000   0.000000   0.000000   0.967229
    13  C    0.000000   0.000000   0.000000   0.000000   0.000000   0.000000
    14  H    0.000000   0.000000   0.000000   0.000000   0.000000   0.000000
    15  H    0.000000   0.000000   0.000000   0.000000   0.000000   0.000000
    16  H    0.000000   0.000000   0.000000   0.000000   0.000000   0.000000
             13         14         15         16
     1  C    0.000000   0.000000   0.000000   0.000000
     2  C    0.000000   0.000000   0.000000   0.000000
     3  H    0.000000   0.000000   0.000000   0.000000
     4  H    0.000000   0.000000   0.000000   0.000000
     5  C    0.000000   0.000000   0.000000   0.000000
     6  H    0.000000   0.000000   0.000000   0.000000
     7  O    0.000000   0.000000   0.000000   0.000000
     8  N    0.000000   0.000000   0.000000   0.000000
     9  C    0.000000   0.000000   0.000000   0.000000
    10  H    0.000000   0.000000   0.000000   0.000000
    11  H    0.000000   0.000000   0.000000   0.000000
    12  H    0.000000   0.000000   0.000000   0.000000
    13  C    4.074586   0.000000   0.000000   0.000000
    14  H    0.000000   0.933580   0.000000   0.000000
    15  H    0.000000   0.000000   0.966010   0.000000
    16  H    0.000000   0.000000   0.000000   0.956331
 Mulliken atomic charges:
              1
     1  C   -0.056655
     2  C   -0.211366
     3  H    0.075110
     4  H    0.096902
     5  C    0.287001
     6  H    0.116298
     7  O   -0.364994
     8  N   -0.063113
     9  C   -0.085629
    10  H    0.053620
    11  H    0.050562
    12  H    0.032771
    13  C   -0.074586
    14  H    0.066420
    15  H    0.033990
    16  H    0.043669
 Sum of Mulliken charges=   0.00000
 Atomic charges with hydrogens summed into heavy atoms:
              1
     1  C    0.115357
     2  C   -0.095068
     3  H    0.000000
     4  H    0.000000
     5  C    0.287001
     6  H    0.000000
     7  O   -0.364994
     8  N   -0.063113
     9  C    0.051324
    10  H    0.000000
    11  H    0.000000
    12  H    0.000000
    13  C    0.069493
    14  H    0.000000
    15  H    0.000000
    16  H    0.000000
 Sum of Mulliken charges=   0.00000
 1\1\GINC-WOLF01\FOpt\RPM3\ZDO\C5H9N1O1\XDANEK7\16-Dec-2012\0\\# PM3 Op
 t Freq NoSymm\\reaktant2\\0,1\C,-3.990376,0.1383,1.231111\C,-2.790515,
 0.671796,1.022764\H,-4.120639,-0.903579,1.509822\H,-4.917899,0.699593,
 1.140092\C,-2.611191,2.098238,0.65058\H,-1.874193,0.069243,1.125837\O,
 -3.534283,2.896133,0.564422\N,-1.267933,2.590336,0.473159\C,-0.261061,
 1.656837,-0.077785\H,-0.392011,0.653346,0.357657\H,0.742448,2.015231,0
 .187387\H,-0.317742,1.570072,-1.172786\C,-1.102462,3.976999,-0.0178\H,
 -1.709448,4.663433,0.58701\H,-1.394971,4.092292,-1.071671\H,-0.049313,
 4.270322,0.085231\\Version=EM64L-G03RevE.01\HF=-0.0416377\RMSD=0.000e+
 00\RMSF=1.452e-05\Thermal=0.\Dipole=0.7529681,-0.8174927,-0.2347052\PG
 =C01 [X(C5H9N1O1)]\\@


      SCIENCE SANS CONSCIENCE N'EST QUE RUINE DE L'AME.

                                                  -- RABELAIS
 Job cpu time:  0 days  0 hours  0 minutes  0.6 seconds.
 File lengths (MBytes):  RWF=     13 Int=      0 D2E=      0 Chk=      6 Scr=      1
 Normal termination of Gaussian 03 at Sun Dec 16 17:38:01 2012.
 Link1:  Proceeding to internal job step number  2.
 -----------------------------------------------------------
 #N Geom=AllCheck Guess=Read SCRF=Check GenChk RPM3/ZDO Freq
 -----------------------------------------------------------
 1/10=4,29=7,30=1,38=1,40=1,46=1/1,3;
 2/15=1,40=1/2;
 3/5=2,11=1,12=1,16=1,25=1,30=1,70=2,71=2/1;
 4/5=1,7=1,11=1,20=7,22=2,24=3,35=1/1,2;
 6/7=2,8=2,9=2,10=2/1;
 7/8=1,25=1,30=1/16;
 1/10=4,30=1,46=1/3;
 99//99;
 ---------
 reaktant2
 ---------
 Redundant internal coordinates taken from checkpoint file:
 /scratch/xdanek7/QM/03_F_analyza/reaktant2/Gau-13756.chk
 Charge =  0 Multiplicity = 1
 C,0,-3.990376,0.1383,1.231111
 C,0,-2.790515,0.671796,1.022764
 H,0,-4.120639,-0.903579,1.509822
 H,0,-4.917899,0.699593,1.140092
 C,0,-2.611191,2.098238,0.65058
 H,0,-1.874193,0.069243,1.125837
 O,0,-3.534283,2.896133,0.564422
 N,0,-1.267933,2.590336,0.473159
 C,0,-0.261061,1.656837,-0.077785
 H,0,-0.392011,0.653346,0.357657
 H,0,0.742448,2.015231,0.187387
 H,0,-0.317742,1.570072,-1.172786
 C,0,-1.102462,3.976999,-0.0178
 H,0,-1.709448,4.663433,0.58701
 H,0,-1.394971,4.092292,-1.071671
 H,0,-0.049313,4.270322,0.085231
 Recover connectivity data from disk.

 GradGradGradGradGradGradGradGradGradGradGradGradGradGradGradGradGradGrad
 Berny optimization.
 Initialization pass.
                           ----------------------------
                           !    Initial Parameters    !
                           ! (Angstroms and Degrees)  !
 --------------------------                            --------------------------
 ! Name  Definition              Value          Derivative Info.                !
 --------------------------------------------------------------------------------
 ! R1    R(1,2)                  1.3295         calculate D2E/DX2 analytically  !
 ! R2    R(1,3)                  1.0864         calculate D2E/DX2 analytically  !
 ! R3    R(1,4)                  1.0879         calculate D2E/DX2 analytically  !
 ! R4    R(2,5)                  1.4851         calculate D2E/DX2 analytically  !
 ! R5    R(2,6)                  1.1015         calculate D2E/DX2 analytically  !
 ! R6    R(5,7)                  1.2232         calculate D2E/DX2 analytically  !
 ! R7    R(5,8)                  1.4415         calculate D2E/DX2 analytically  !
 ! R8    R(8,9)                  1.4794         calculate D2E/DX2 analytically  !
 ! R9    R(8,13)                 1.4803         calculate D2E/DX2 analytically  !
 ! R10   R(9,10)                 1.1017         calculate D2E/DX2 analytically  !
 ! R11   R(9,11)                 1.0981         calculate D2E/DX2 analytically  !
 ! R12   R(9,12)                 1.0999         calculate D2E/DX2 analytically  !
 ! R13   R(13,14)                1.0979         calculate D2E/DX2 analytically  !
 ! R14   R(13,15)                1.0998         calculate D2E/DX2 analytically  !
 ! R15   R(13,16)                1.0981         calculate D2E/DX2 analytically  !
 ! A1    A(2,1,3)              122.2254         calculate D2E/DX2 analytically  !
 ! A2    A(2,1,4)              123.316          calculate D2E/DX2 analytically  !
 ! A3    A(3,1,4)              114.4585         calculate D2E/DX2 analytically  !
 ! A4    A(1,2,5)              122.2537         calculate D2E/DX2 analytically  !
 ! A5    A(1,2,6)              121.1024         calculate D2E/DX2 analytically  !
 ! A6    A(5,2,6)              116.6429         calculate D2E/DX2 analytically  !
 ! A7    A(2,5,7)              123.5793         calculate D2E/DX2 analytically  !
 ! A8    A(2,5,8)              118.1165         calculate D2E/DX2 analytically  !
 ! A9    A(7,5,8)              118.156          calculate D2E/DX2 analytically  !
 ! A10   A(5,8,9)              117.6855         calculate D2E/DX2 analytically  !
 ! A11   A(5,8,13)             117.6951         calculate D2E/DX2 analytically  !
 ! A12   A(9,8,13)             113.0468         calculate D2E/DX2 analytically  !
 ! A13   A(8,9,10)             110.2824         calculate D2E/DX2 analytically  !
 ! A14   A(8,9,11)             109.0316         calculate D2E/DX2 analytically  !
 ! A15   A(8,9,12)             112.6714         calculate D2E/DX2 analytically  !
 ! A16   A(10,9,11)            108.0871         calculate D2E/DX2 analytically  !
 ! A17   A(10,9,12)            108.3915         calculate D2E/DX2 analytically  !
 ! A18   A(11,9,12)            108.2553         calculate D2E/DX2 analytically  !
 ! A19   A(8,13,14)            109.948          calculate D2E/DX2 analytically  !
 ! A20   A(8,13,15)            112.7241         calculate D2E/DX2 analytically  !
 ! A21   A(8,13,16)            109.0455         calculate D2E/DX2 analytically  !
 ! A22   A(14,13,15)           108.3785         calculate D2E/DX2 analytically  !
 ! A23   A(14,13,16)           108.1517         calculate D2E/DX2 analytically  !
 ! A24   A(15,13,16)           108.4815         calculate D2E/DX2 analytically  !
 ! D1    D(3,1,2,5)           -179.5831         calculate D2E/DX2 analytically  !
 ! D2    D(3,1,2,6)              0.0398         calculate D2E/DX2 analytically  !
 ! D3    D(4,1,2,5)              0.335          calculate D2E/DX2 analytically  !
 ! D4    D(1,2,5,7)              3.2421         calculate D2E/DX2 analytically  !
 ! D5    D(1,2,5,8)            178.7267         calculate D2E/DX2 analytically  !
 ! D6    D(6,2,5,7)           -176.3966         calculate D2E/DX2 analytically  !
 ! D7    D(2,5,8,9)             33.7327         calculate D2E/DX2 analytically  !
 ! D8    D(2,5,8,13)           174.5117         calculate D2E/DX2 analytically  !
 ! D9    D(7,5,8,9)           -150.5336         calculate D2E/DX2 analytically  !
 ! D10   D(5,8,9,10)           -40.5204         calculate D2E/DX2 analytically  !
 ! D11   D(5,8,9,11)          -159.0493         calculate D2E/DX2 analytically  !
 ! D12   D(13,8,9,10)          176.9559         calculate D2E/DX2 analytically  !
 ! D13   D(5,8,13,14)           50.6172         calculate D2E/DX2 analytically  !
 ! D14   D(5,8,13,15)          -70.4235         calculate D2E/DX2 analytically  !
 ! D15   D(9,8,13,14)         -166.863          calculate D2E/DX2 analytically  !
 --------------------------------------------------------------------------------
 Trust Radius=3.00D-01 FncErr=1.00D-07 GrdErr=1.00D-07
 Number of steps in this run=   2 maximum allowed number of steps=   2.
 GradGradGradGradGradGradGradGradGradGradGradGradGradGradGradGradGradGrad

                          Input orientation:                          
 ---------------------------------------------------------------------
 Center     Atomic     Atomic              Coordinates (Angstroms)
 Number     Number      Type              X           Y           Z
 ---------------------------------------------------------------------
    1          6             0       -3.990376    0.138300    1.231111
    2          6             0       -2.790515    0.671796    1.022764
    3          1             0       -4.120639   -0.903579    1.509822
    4          1             0       -4.917899    0.699593    1.140092
    5          6             0       -2.611191    2.098238    0.650580
    6          1             0       -1.874193    0.069243    1.125837
    7          8             0       -3.534283    2.896133    0.564422
    8          7             0       -1.267933    2.590336    0.473159
    9          6             0       -0.261061    1.656837   -0.077785
   10          1             0       -0.392011    0.653346    0.357657
   11          1             0        0.742448    2.015231    0.187387
   12          1             0       -0.317742    1.570072   -1.172786
   13          6             0       -1.102462    3.976999   -0.017800
   14          1             0       -1.709448    4.663433    0.587010
   15          1             0       -1.394971    4.092292   -1.071671
   16          1             0       -0.049313    4.270322    0.085231
 ---------------------------------------------------------------------
                    Distance matrix (angstroms):
                    1          2          3          4          5
     1  C    0.000000
     2  C    1.329546   0.000000
     3  H    1.086352   2.118552   0.000000
     4  H    1.087949   2.130798   1.828246   0.000000
     5  C    2.465872   1.485064   3.468088   2.741666   0.000000
     6  H    2.119925   1.101517   2.477972   3.108326   2.210397
     7  O    2.873698   2.389758   3.959218   2.659056   1.223176
     8  N    3.741479   2.510203   4.628179   4.164368   1.441520
     9  C    4.234023   2.929104   4.896179   4.907716   2.499692
    10  H    3.738506   2.489082   4.201686   4.593257   2.664259
    11  H    5.197293   3.870982   5.823908   5.888810   3.386493
    12  H    4.617026   3.426652   5.270423   5.221933   2.977168
    13  C    4.963410   3.854434   5.938271   5.161363   2.500548
    14  H    5.108261   4.158335   6.136534   5.129531   2.719817
    15  H    5.260512   4.246645   6.249168   5.367804   2.901998
    16  H    5.823970   4.619799   6.736053   6.129108   3.405993
                    6          7          8          9         10
     6  H    0.000000
     7  O    3.326018   0.000000
     8  N    2.673845   2.288708   0.000000
     9  C    2.563466   3.558408   1.479443   0.000000
    10  H    1.768655   3.866099   2.128969   1.101704   0.000000
    11  H    3.393283   4.382758   2.110460   1.098086   1.780652
    12  H    3.155740   3.888761   2.157067   1.099895   1.785541
    13  C    4.144156   2.724153   1.480289   2.468746   3.419412
    14  H    4.628613   2.540449   2.122647   3.402851   4.227179
    15  H    4.609080   2.946906   2.158358   2.864438   3.856845
    16  H    4.697032   3.776643   2.111368   2.627112   3.643374
                   11         12         13         14         15
    11  H    0.000000
    12  H    1.781078   0.000000
    13  C    2.700801   2.782638   0.000000
    14  H    3.631042   3.821336   1.097916   0.000000
    15  H    3.235424   2.744493   1.099772   1.782223   0.000000
    16  H    2.392228   2.990988   1.098079   1.778304   1.783511
                   16
    16  H    0.000000
 Symmetry turned off by external request.
 Stoichiometry    C5H9NO
 Framework group  C1[X(C5H9NO)]
 Deg. of freedom    42
 Full point group                 C1
 Rotational constants (GHZ):      4.7851850      1.9203357      1.4115282
 Standard basis: VSTO-3G (5D, 7F)
 Integral buffers will be    131072 words long.
 Raffenetti 1 integral format.
 Two-electron integral symmetry is turned off.
    37 basis functions,   111 primitive gaussians,    37 cartesian basis functions
    20 alpha electrons       20 beta electrons
       nuclear repulsion energy       162.9761849724 Hartrees.
 NAtoms=   16 NActive=   16 NUniq=   16 SFac= 7.50D-01 NAtFMM=   80 NAOKFM=F Big=F
 Initial guess read from the checkpoint file:
 /scratch/xdanek7/QM/03_F_analyza/reaktant2/Gau-13756.chk
 RHF-PM3 calculation of energy, first and second derivatives.
 MO and density RWFs will be updated without deorthogonalization.
 Numerical evaluation of force-constants.
 Step-Size= 0.018897 bohr.
 Closed-shell calculation:      20 occupied levels.
 NNHCO=    0.
 References:
  H: (PM3): J. J. P. STEWART, J. COMP. CHEM.     10, 209 (1989).
  C: (PM3): J. J. P. STEWART, J. COMP. CHEM.     10, 209 (1989).
  N: (PM3): J. J. P. STEWART, J. COMP. CHEM.     10, 209 (1989).
  O: (PM3): J. J. P. STEWART, J. COMP. CHEM.     10, 209 (1989).
 Ext34=T Pulay=F Camp-King=F BShift= 0.00D+00
 It=  1 PL= 0.987D+00 DiagD=T ESCF=      4.750499 Diff= 0.414D+00 RMSDP= 0.242D+00.
 It=  2 PL= 0.440D-01 DiagD=T ESCF=     -0.757782 Diff=-0.551D+01 RMSDP= 0.530D-02.
 It=  3 PL= 0.187D-01 DiagD=F ESCF=     -1.088452 Diff=-0.331D+00 RMSDP= 0.280D-02.
 It=  4 PL= 0.474D-02 DiagD=F ESCF=     -1.149987 Diff=-0.615D-01 RMSDP= 0.450D-03.
 It=  5 PL= 0.256D-02 DiagD=F ESCF=     -1.132036 Diff= 0.180D-01 RMSDP= 0.254D-03.
 It=  6 PL= 0.156D-02 DiagD=F ESCF=     -1.132654 Diff=-0.618D-03 RMSDP= 0.373D-03.
 It=  7 PL= 0.169D-03 DiagD=F ESCF=     -1.133490 Diff=-0.836D-03 RMSDP= 0.154D-04.
 It=  8 PL= 0.682D-04 DiagD=F ESCF=     -1.132998 Diff= 0.492D-03 RMSDP= 0.682D-05.
 It=  9 PL= 0.287D-04 DiagD=F ESCF=     -1.132998 Diff=-0.400D-06 RMSDP= 0.718D-05.
 It= 10 PL= 0.588D-05 DiagD=F ESCF=     -1.132999 Diff=-0.293D-06 RMSDP= 0.689D-06.
 It= 11 PL= 0.323D-05 DiagD=F ESCF=     -1.132999 Diff= 0.143D-06 RMSDP= 0.387D-06.
 It= 12 PL= 0.194D-05 DiagD=F ESCF=     -1.132999 Diff=-0.125D-08 RMSDP= 0.566D-06.
 It= 13 PL= 0.287D-06 DiagD=F ESCF=     -1.132999 Diff=-0.169D-08 RMSDP= 0.457D-07.
 SE2nd ... symmetry will not be used.
 SE2nd: IAtom=  1 IXYZ=1 IS=1.
 SE2nd: IAtom=  1 IXYZ=1 IS=2.
 SE2nd: IAtom=  1 IXYZ=2 IS=1.
 SE2nd: IAtom=  1 IXYZ=2 IS=2.
 SE2nd: IAtom=  1 IXYZ=3 IS=1.
 SE2nd: IAtom=  1 IXYZ=3 IS=2.
 SE2nd: IAtom=  2 IXYZ=1 IS=1.
 SE2nd: IAtom=  2 IXYZ=1 IS=2.
 SE2nd: IAtom=  2 IXYZ=2 IS=1.
 SE2nd: IAtom=  2 IXYZ=2 IS=2.
 SE2nd: IAtom=  2 IXYZ=3 IS=1.
 SE2nd: IAtom=  2 IXYZ=3 IS=2.
 SE2nd: IAtom=  3 IXYZ=1 IS=1.
 SE2nd: IAtom=  3 IXYZ=1 IS=2.
 SE2nd: IAtom=  3 IXYZ=2 IS=1.
 SE2nd: IAtom=  3 IXYZ=2 IS=2.
 SE2nd: IAtom=  3 IXYZ=3 IS=1.
 SE2nd: IAtom=  3 IXYZ=3 IS=2.
 SE2nd: IAtom=  4 IXYZ=1 IS=1.
 SE2nd: IAtom=  4 IXYZ=1 IS=2.
 SE2nd: IAtom=  4 IXYZ=2 IS=1.
 SE2nd: IAtom=  4 IXYZ=2 IS=2.
 SE2nd: IAtom=  4 IXYZ=3 IS=1.
 SE2nd: IAtom=  4 IXYZ=3 IS=2.
 SE2nd: IAtom=  5 IXYZ=1 IS=1.
 SE2nd: IAtom=  5 IXYZ=1 IS=2.
 SE2nd: IAtom=  5 IXYZ=2 IS=1.
 SE2nd: IAtom=  5 IXYZ=2 IS=2.
 SE2nd: IAtom=  5 IXYZ=3 IS=1.
 SE2nd: IAtom=  5 IXYZ=3 IS=2.
 SE2nd: IAtom=  6 IXYZ=1 IS=1.
 SE2nd: IAtom=  6 IXYZ=1 IS=2.
 SE2nd: IAtom=  6 IXYZ=2 IS=1.
 SE2nd: IAtom=  6 IXYZ=2 IS=2.
 SE2nd: IAtom=  6 IXYZ=3 IS=1.
 SE2nd: IAtom=  6 IXYZ=3 IS=2.
 SE2nd: IAtom=  7 IXYZ=1 IS=1.
 SE2nd: IAtom=  7 IXYZ=1 IS=2.
 SE2nd: IAtom=  7 IXYZ=2 IS=1.
 SE2nd: IAtom=  7 IXYZ=2 IS=2.
 SE2nd: IAtom=  7 IXYZ=3 IS=1.
 SE2nd: IAtom=  7 IXYZ=3 IS=2.
 SE2nd: IAtom=  8 IXYZ=1 IS=1.
 SE2nd: IAtom=  8 IXYZ=1 IS=2.
 SE2nd: IAtom=  8 IXYZ=2 IS=1.
 SE2nd: IAtom=  8 IXYZ=2 IS=2.
 SE2nd: IAtom=  8 IXYZ=3 IS=1.
 SE2nd: IAtom=  8 IXYZ=3 IS=2.
 SE2nd: IAtom=  9 IXYZ=1 IS=1.
 SE2nd: IAtom=  9 IXYZ=1 IS=2.
 SE2nd: IAtom=  9 IXYZ=2 IS=1.
 SE2nd: IAtom=  9 IXYZ=2 IS=2.
 SE2nd: IAtom=  9 IXYZ=3 IS=1.
 SE2nd: IAtom=  9 IXYZ=3 IS=2.
 SE2nd: IAtom= 10 IXYZ=1 IS=1.
 SE2nd: IAtom= 10 IXYZ=1 IS=2.
 SE2nd: IAtom= 10 IXYZ=2 IS=1.
 SE2nd: IAtom= 10 IXYZ=2 IS=2.
 SE2nd: IAtom= 10 IXYZ=3 IS=1.
 SE2nd: IAtom= 10 IXYZ=3 IS=2.
 SE2nd: IAtom= 11 IXYZ=1 IS=1.
 SE2nd: IAtom= 11 IXYZ=1 IS=2.
 SE2nd: IAtom= 11 IXYZ=2 IS=1.
 SE2nd: IAtom= 11 IXYZ=2 IS=2.
 SE2nd: IAtom= 11 IXYZ=3 IS=1.
 SE2nd: IAtom= 11 IXYZ=3 IS=2.
 SE2nd: IAtom= 12 IXYZ=1 IS=1.
 SE2nd: IAtom= 12 IXYZ=1 IS=2.
 SE2nd: IAtom= 12 IXYZ=2 IS=1.
 SE2nd: IAtom= 12 IXYZ=2 IS=2.
 SE2nd: IAtom= 12 IXYZ=3 IS=1.
 SE2nd: IAtom= 12 IXYZ=3 IS=2.
 SE2nd: IAtom= 13 IXYZ=1 IS=1.
 SE2nd: IAtom= 13 IXYZ=1 IS=2.
 SE2nd: IAtom= 13 IXYZ=2 IS=1.
 SE2nd: IAtom= 13 IXYZ=2 IS=2.
 SE2nd: IAtom= 13 IXYZ=3 IS=1.
 SE2nd: IAtom= 13 IXYZ=3 IS=2.
 SE2nd: IAtom= 14 IXYZ=1 IS=1.
 SE2nd: IAtom= 14 IXYZ=1 IS=2.
 SE2nd: IAtom= 14 IXYZ=2 IS=1.
 SE2nd: IAtom= 14 IXYZ=2 IS=2.
 SE2nd: IAtom= 14 IXYZ=3 IS=1.
 SE2nd: IAtom= 14 IXYZ=3 IS=2.
 SE2nd: IAtom= 15 IXYZ=1 IS=1.
 SE2nd: IAtom= 15 IXYZ=1 IS=2.
 SE2nd: IAtom= 15 IXYZ=2 IS=1.
 SE2nd: IAtom= 15 IXYZ=2 IS=2.
 SE2nd: IAtom= 15 IXYZ=3 IS=1.
 SE2nd: IAtom= 15 IXYZ=3 IS=2.
 SE2nd: IAtom= 16 IXYZ=1 IS=1.
 SE2nd: IAtom= 16 IXYZ=1 IS=2.
 SE2nd: IAtom= 16 IXYZ=2 IS=1.
 SE2nd: IAtom= 16 IXYZ=2 IS=2.
 SE2nd: IAtom= 16 IXYZ=3 IS=1.
 SE2nd: IAtom= 16 IXYZ=3 IS=2.
 Maximum difference in off-diagonal FC elements:
 I= 22 J= 14 Difference=    1.0310292089D-04
 Max difference between analytic and numerical forces:
 I=  5 Difference=    7.3753364184D-05
 Energy=   -0.041637747143 NIter=  14.
 Dipole moment=       0.752969      -0.817493      -0.234706

 **********************************************************************

            Population analysis using the SCF density.

 **********************************************************************

 Alpha  occ. eigenvalues --   -1.42444  -1.25888  -1.20233  -1.01576  -0.91335
 Alpha  occ. eigenvalues --   -0.78214  -0.68158  -0.65866  -0.61505  -0.58251
 Alpha  occ. eigenvalues --   -0.56292  -0.54707  -0.51486  -0.50645  -0.49855
 Alpha  occ. eigenvalues --   -0.48251  -0.46449  -0.39995  -0.39809  -0.34718
 Alpha virt. eigenvalues --    0.00163   0.06007   0.07097   0.10693   0.12750
 Alpha virt. eigenvalues --    0.13022   0.13145   0.13987   0.14241   0.14691
 Alpha virt. eigenvalues --    0.15447   0.16151   0.18155   0.18650   0.19000
 Alpha virt. eigenvalues --    0.21578   0.26669
          Condensed to atoms (all electrons):
              1          2          3          4          5          6
     1  C    4.056655   0.000000   0.000000   0.000000   0.000000   0.000000
     2  C    0.000000   4.211366   0.000000   0.000000   0.000000   0.000000
     3  H    0.000000   0.000000   0.924890   0.000000   0.000000   0.000000
     4  H    0.000000   0.000000   0.000000   0.903098   0.000000   0.000000
     5  C    0.000000   0.000000   0.000000   0.000000   3.712999   0.000000
     6  H    0.000000   0.000000   0.000000   0.000000   0.000000   0.883702
     7  O    0.000000   0.000000   0.000000   0.000000   0.000000   0.000000
     8  N    0.000000   0.000000   0.000000   0.000000   0.000000   0.000000
     9  C    0.000000   0.000000   0.000000   0.000000   0.000000   0.000000
    10  H    0.000000   0.000000   0.000000   0.000000   0.000000   0.000000
    11  H    0.000000   0.000000   0.000000   0.000000   0.000000   0.000000
    12  H    0.000000   0.000000   0.000000   0.000000   0.000000   0.000000
    13  C    0.000000   0.000000   0.000000   0.000000   0.000000   0.000000
    14  H    0.000000   0.000000   0.000000   0.000000   0.000000   0.000000
    15  H    0.000000   0.000000   0.000000   0.000000   0.000000   0.000000
    16  H    0.000000   0.000000   0.000000   0.000000   0.000000   0.000000
              7          8          9         10         11         12
     1  C    0.000000   0.000000   0.000000   0.000000   0.000000   0.000000
     2  C    0.000000   0.000000   0.000000   0.000000   0.000000   0.000000
     3  H    0.000000   0.000000   0.000000   0.000000   0.000000   0.000000
     4  H    0.000000   0.000000   0.000000   0.000000   0.000000   0.000000
     5  C    0.000000   0.000000   0.000000   0.000000   0.000000   0.000000
     6  H    0.000000   0.000000   0.000000   0.000000   0.000000   0.000000
     7  O    6.364994   0.000000   0.000000   0.000000   0.000000   0.000000
     8  N    0.000000   5.063113   0.000000   0.000000   0.000000   0.000000
     9  C    0.000000   0.000000   4.085629   0.000000   0.000000   0.000000
    10  H    0.000000   0.000000   0.000000   0.946380   0.000000   0.000000
    11  H    0.000000   0.000000   0.000000   0.000000   0.949438   0.000000
    12  H    0.000000   0.000000   0.000000   0.000000   0.000000   0.967229
    13  C    0.000000   0.000000   0.000000   0.000000   0.000000   0.000000
    14  H    0.000000   0.000000   0.000000   0.000000   0.000000   0.000000
    15  H    0.000000   0.000000   0.000000   0.000000   0.000000   0.000000
    16  H    0.000000   0.000000   0.000000   0.000000   0.000000   0.000000
             13         14         15         16
     1  C    0.000000   0.000000   0.000000   0.000000
     2  C    0.000000   0.000000   0.000000   0.000000
     3  H    0.000000   0.000000   0.000000   0.000000
     4  H    0.000000   0.000000   0.000000   0.000000
     5  C    0.000000   0.000000   0.000000   0.000000
     6  H    0.000000   0.000000   0.000000   0.000000
     7  O    0.000000   0.000000   0.000000   0.000000
     8  N    0.000000   0.000000   0.000000   0.000000
     9  C    0.000000   0.000000   0.000000   0.000000
    10  H    0.000000   0.000000   0.000000   0.000000
    11  H    0.000000   0.000000   0.000000   0.000000
    12  H    0.000000   0.000000   0.000000   0.000000
    13  C    4.074586   0.000000   0.000000   0.000000
    14  H    0.000000   0.933580   0.000000   0.000000
    15  H    0.000000   0.000000   0.966010   0.000000
    16  H    0.000000   0.000000   0.000000   0.956331
 Mulliken atomic charges:
              1
     1  C   -0.056655
     2  C   -0.211366
     3  H    0.075110
     4  H    0.096902
     5  C    0.287001
     6  H    0.116298
     7  O   -0.364994
     8  N   -0.063113
     9  C   -0.085629
    10  H    0.053620
    11  H    0.050562
    12  H    0.032771
    13  C   -0.074586
    14  H    0.066420
    15  H    0.033990
    16  H    0.043669
 Sum of Mulliken charges=   0.00000
 Atomic charges with hydrogens summed into heavy atoms:
              1
     1  C    0.115357
     2  C   -0.095068
     3  H    0.000000
     4  H    0.000000
     5  C    0.287001
     6  H    0.000000
     7  O   -0.364994
     8  N   -0.063113
     9  C    0.051324
    10  H    0.000000
    11  H    0.000000
    12  H    0.000000
    13  C    0.069493
    14  H    0.000000
    15  H    0.000000
    16  H    0.000000
 Sum of Mulliken charges=   0.00000
 APT atomic charges:
              1
     1  C    0.004493
     2  C   -0.406666
     3  H    0.068178
     4  H    0.092076
     5  C    1.215400
     6  H    0.109436
     7  O   -0.750823
     8  N   -0.657011
     9  C    0.126253
    10  H    0.034966
    11  H    0.020206
    12  H   -0.017335
    13  C    0.124168
    14  H    0.041082
    15  H   -0.015714
    16  H    0.011731
 Sum of APT charges=   0.00044
 APT Atomic charges with hydrogens summed into heavy atoms:
              1
     1  C    0.164747
     2  C   -0.297231
     3  H    0.000000
     4  H    0.000000
     5  C    1.215400
     6  H    0.000000
     7  O   -0.750823
     8  N   -0.657011
     9  C    0.164090
    10  H    0.000000
    11  H    0.000000
    12  H    0.000000
    13  C    0.161266
    14  H    0.000000
    15  H    0.000000
    16  H    0.000000
 Sum of APT charges=   0.00044
 Full mass-weighted force constant matrix:
 Low frequencies ---   -6.1584   -3.2815   -0.1918    0.0173    0.0777    1.6743
 Low frequencies ---   35.9812   88.3574  123.1638
 Diagonal vibrational polarizability:
       14.5235930      11.0639914      47.0487680
 Harmonic frequencies (cm**-1), IR intensities (KM/Mole), Raman scattering
 activities (A**4/AMU), depolarization ratios for plane and unpolarized
 incident light, reduced masses (AMU), force constants (mDyne/A),
 and normal coordinates:
                     1                      2                      3
                     A                      A                      A
 Frequencies --    35.9805                88.3567               123.1630
 Red. masses --     2.9081                 2.5043                 1.0618
 Frc consts  --     0.0022                 0.0115                 0.0095
 IR Inten    --     2.2028                 1.1645                 0.1146
 Atom AN      X      Y      Z        X      Y      Z        X      Y      Z
   1   6    -0.01   0.06   0.24     0.04  -0.04  -0.05    -0.01   0.01  -0.01
   2   6    -0.02  -0.04  -0.10     0.04   0.06   0.20     0.00   0.00   0.01
   3   1    -0.01   0.06   0.25     0.08  -0.01   0.09    -0.02   0.01   0.00
   4   1     0.02   0.15   0.54     0.00  -0.16  -0.40    -0.01   0.01  -0.03
   5   6    -0.01  -0.04  -0.10    -0.01   0.02   0.02     0.01  -0.01   0.00
   6   1    -0.05  -0.12  -0.39     0.08   0.19   0.54    -0.01   0.00   0.03
   7   8    -0.01  -0.05  -0.18    -0.02  -0.02  -0.15     0.02   0.00  -0.03
   8   7     0.00  -0.02   0.02     0.01  -0.01   0.02     0.01  -0.01   0.01
   9   6     0.02   0.04  -0.06    -0.10  -0.04  -0.14     0.02   0.00   0.02
  10   1    -0.03  -0.03  -0.23    -0.08  -0.02  -0.11    -0.03  -0.02  -0.05
  11   1     0.01  -0.02   0.06    -0.05  -0.07  -0.31     0.01  -0.04   0.11
  12   1     0.09   0.21  -0.08    -0.29  -0.04  -0.13     0.09   0.07   0.01
  13   6     0.02   0.03   0.17     0.05   0.02   0.13    -0.04   0.00   0.00
  14   1     0.00  -0.04   0.23     0.07  -0.01   0.19     0.35   0.02   0.38
  15   1     0.07   0.15   0.17     0.04   0.12   0.14    -0.59   0.11   0.17
  16   1     0.02   0.02   0.25     0.06  -0.02   0.15     0.04  -0.13  -0.54
                     4                      5                      6
                     A                      A                      A
 Frequencies --   153.2726               252.5426               282.2039
 Red. masses --     1.0852                 3.1793                 2.7669
 Frc consts  --     0.0150                 0.1195                 0.1298
 IR Inten    --     0.1181                12.1266                 5.2098
 Atom AN      X      Y      Z        X      Y      Z        X      Y      Z
   1   6    -0.01   0.00  -0.01     0.09  -0.13   0.05    -0.10   0.16  -0.03
   2   6     0.00   0.01   0.06    -0.01   0.06  -0.02     0.02  -0.04   0.09
   3   1    -0.01   0.01   0.02     0.30  -0.12   0.18    -0.33   0.23   0.12
   4   1    -0.01  -0.02  -0.10    -0.01  -0.31   0.00     0.01   0.30  -0.28
   5   6     0.00  -0.01   0.01    -0.10   0.05  -0.11     0.06  -0.09  -0.04
   6   1     0.00   0.02   0.14     0.05   0.15   0.08    -0.01  -0.04   0.26
   7   8     0.00   0.00   0.02    -0.08   0.10   0.07     0.04  -0.09   0.06
   8   7    -0.01  -0.01  -0.03    -0.11  -0.04  -0.23    -0.02  -0.04  -0.20
   9   6     0.02   0.02  -0.02     0.03  -0.06   0.09     0.12   0.02  -0.01
  10   1    -0.27  -0.13  -0.46     0.03  -0.01   0.20     0.16   0.10   0.20
  11   1    -0.02  -0.23   0.46    -0.04   0.03   0.22     0.07   0.18  -0.05
  12   1     0.39   0.46  -0.08     0.24  -0.22   0.09     0.16  -0.21   0.01
  13   6     0.00  -0.01  -0.02     0.13   0.03   0.07    -0.10   0.06   0.08
  14   1    -0.06  -0.01  -0.08     0.27  -0.01   0.26    -0.22  -0.12   0.17
  15   1     0.10  -0.03  -0.05     0.11   0.33   0.11    -0.03   0.24   0.08
  16   1    -0.01   0.00   0.07     0.19  -0.18   0.10    -0.14   0.14   0.23
                     7                      8                      9
                     A                      A                      A
 Frequencies --   366.0154               440.2196               481.3543
 Red. masses --     4.5495                 3.5272                 2.5158
 Frc consts  --     0.3591                 0.4027                 0.3434
 IR Inten    --     8.6733                 1.4010                 3.8633
 Atom AN      X      Y      Z        X      Y      Z        X      Y      Z
   1   6    -0.02  -0.17   0.04     0.19   0.16  -0.05     0.02   0.06   0.01
   2   6    -0.11   0.02   0.02     0.19   0.08  -0.09     0.00   0.06  -0.06
   3   1     0.19  -0.19   0.06     0.12   0.17  -0.05     0.06   0.18   0.50
   4   1    -0.13  -0.35   0.04     0.24   0.25   0.01    -0.01  -0.05  -0.39
   5   6     0.00  -0.01  -0.01     0.00   0.08  -0.03    -0.08   0.02  -0.13
   6   1    -0.05   0.10   0.03     0.14   0.02  -0.07     0.09   0.22   0.19
   7   8     0.25   0.27  -0.07    -0.05   0.04   0.00    -0.10   0.03   0.07
   8   7     0.02  -0.10  -0.01     0.00  -0.05   0.01     0.03  -0.10   0.11
   9   6     0.08  -0.01  -0.03    -0.10  -0.22   0.07     0.13   0.08  -0.06
  10   1     0.11   0.00   0.01    -0.19  -0.25  -0.05     0.30   0.05  -0.08
  11   1     0.05   0.07  -0.05    -0.08  -0.38   0.20     0.09   0.26  -0.16
  12   1     0.07  -0.04  -0.02     0.00  -0.15   0.06     0.03   0.15  -0.06
  13   6    -0.24  -0.04   0.05    -0.17  -0.04   0.06     0.00  -0.16   0.02
  14   1    -0.47  -0.17  -0.01    -0.33  -0.18   0.07     0.01  -0.11  -0.03
  15   1    -0.15  -0.10   0.02    -0.17  -0.06   0.06    -0.05  -0.29   0.02
  16   1    -0.33   0.21   0.20    -0.24   0.13   0.12    -0.01  -0.11  -0.06
                    10                     11                     12
                     A                      A                      A
 Frequencies --   495.7315               563.3350               758.6309
 Red. masses --     2.1191                 3.4842                 2.4158
 Frc consts  --     0.3068                 0.6515                 0.8192
 IR Inten    --     1.8597                 5.1055                21.6594
 Atom AN      X      Y      Z        X      Y      Z        X      Y      Z
   1   6     0.01   0.02  -0.04     0.07   0.06  -0.02     0.00  -0.01   0.00
   2   6     0.01   0.07   0.10     0.16  -0.14   0.03     0.00  -0.04  -0.12
   3   1    -0.01  -0.15  -0.68    -0.28   0.11  -0.04     0.01   0.18   0.71
   4   1     0.03   0.13   0.41     0.26   0.37  -0.09    -0.01  -0.10  -0.47
   5   6    -0.04   0.07   0.15    -0.08  -0.11   0.02     0.01   0.07   0.31
   6   1     0.02   0.02  -0.27     0.17  -0.12   0.01    -0.02  -0.09  -0.26
   7   8    -0.09   0.01  -0.06     0.12   0.12  -0.04    -0.02   0.00  -0.07
   8   7    -0.01  -0.09  -0.05    -0.23  -0.05   0.00    -0.02  -0.01  -0.06
   9   6     0.12   0.03  -0.05    -0.12   0.13   0.03     0.02  -0.02  -0.02
  10   1     0.25   0.02  -0.03     0.09   0.08  -0.02     0.07  -0.02  -0.01
  11   1     0.06   0.20  -0.05    -0.19   0.32   0.06    -0.01   0.05   0.02
  12   1     0.14   0.01  -0.05    -0.11   0.20   0.03     0.09  -0.04  -0.02
  13   6     0.00  -0.09   0.02     0.03  -0.10   0.00     0.00   0.00  -0.01
  14   1     0.00  -0.12   0.05     0.21   0.10  -0.06     0.01  -0.01   0.02
  15   1     0.00  -0.05   0.02     0.12  -0.09  -0.02     0.02   0.08  -0.01
  16   1     0.00  -0.09   0.03     0.11  -0.38   0.03     0.01  -0.03   0.03
                    13                     14                     15
                     A                      A                      A
 Frequencies --   824.7152               941.1108               959.6691
 Red. masses --     2.3628                 1.2455                 1.4077
 Frc consts  --     0.9468                 0.6499                 0.7638
 IR Inten    --     7.2550                59.6902                 5.3404
 Atom AN      X      Y      Z        X      Y      Z        X      Y      Z
   1   6     0.00   0.11  -0.03    -0.01  -0.01  -0.02     0.00   0.04  -0.01
   2   6    -0.05   0.16  -0.04    -0.01  -0.03  -0.12     0.01   0.01   0.00
   3   1     0.65   0.02  -0.02    -0.04   0.00   0.03     0.16   0.01  -0.02
   4   1    -0.30  -0.39   0.09     0.04   0.15   0.48    -0.07  -0.08   0.04
   5   6     0.13  -0.03   0.02     0.01   0.02   0.06    -0.02  -0.03   0.01
   6   1    -0.11   0.05  -0.04     0.08   0.26   0.78     0.01   0.02   0.03
   7   8     0.09  -0.11   0.01     0.00   0.00  -0.01     0.01   0.00   0.00
   8   7    -0.07  -0.02  -0.04     0.01   0.00  -0.01    -0.06   0.01   0.02
   9   6    -0.10   0.07   0.03     0.00   0.02  -0.02     0.11  -0.05  -0.01
  10   1    -0.04   0.08   0.04    -0.11   0.08   0.08     0.03  -0.07  -0.07
  11   1    -0.16   0.19   0.09     0.00  -0.01   0.03     0.25  -0.30  -0.19
  12   1    -0.07   0.10   0.03     0.08  -0.07  -0.02    -0.04  -0.03  -0.01
  13   6    -0.02  -0.11   0.02     0.00  -0.02   0.01    -0.09   0.07   0.03
  14   1     0.04  -0.08   0.04     0.00  -0.02   0.01     0.21   0.59  -0.26
  15   1     0.03  -0.05   0.01     0.00  -0.02   0.00     0.11  -0.04  -0.04
  16   1     0.02  -0.28   0.09     0.00  -0.05   0.02     0.07  -0.49   0.06
                    16                     17                     18
                     A                      A                      A
 Frequencies --   974.3660               999.8470              1023.1427
 Red. masses --     1.2271                 1.4343                 1.3382
 Frc consts  --     0.6864                 0.8448                 0.8253
 IR Inten    --     2.2331                 1.3087                19.8495
 Atom AN      X      Y      Z        X      Y      Z        X      Y      Z
   1   6     0.00  -0.02   0.00     0.02  -0.04   0.02     0.01  -0.01   0.01
   2   6     0.00   0.00   0.00     0.00   0.01   0.01    -0.01   0.02   0.00
   3   1    -0.07   0.00   0.02    -0.19  -0.03  -0.02    -0.09  -0.02  -0.04
   4   1     0.04   0.04   0.00     0.11   0.07  -0.16     0.05   0.05  -0.06
   5   6     0.01   0.01   0.00     0.03   0.05  -0.02     0.01   0.00  -0.02
   6   1    -0.01   0.00   0.01    -0.12  -0.18  -0.14     0.03   0.08  -0.03
   7   8    -0.01   0.01   0.00    -0.01   0.00   0.00     0.01  -0.01   0.01
   8   7     0.01   0.03  -0.01     0.04   0.06  -0.03     0.03   0.01   0.09
   9   6     0.04   0.04   0.07    -0.01   0.09  -0.05    -0.03  -0.04  -0.07
  10   1    -0.09  -0.01  -0.09    -0.45   0.31   0.31     0.16  -0.02   0.05
  11   1     0.25  -0.31  -0.25     0.10  -0.29   0.08    -0.22   0.29   0.22
  12   1    -0.40   0.28   0.07     0.21  -0.33  -0.03     0.36  -0.23  -0.07
  13   6    -0.03  -0.06  -0.07    -0.04  -0.10   0.05    -0.06   0.00  -0.08
  14   1    -0.02  -0.33   0.24     0.03   0.02  -0.02     0.10  -0.01   0.11
  15   1     0.08   0.46  -0.04     0.00  -0.26   0.03     0.15   0.55  -0.07
  16   1    -0.01  -0.24   0.22     0.02  -0.32   0.07     0.02  -0.37   0.23
                    19                     20                     21
                     A                      A                      A
 Frequencies --  1042.2316              1056.7167              1166.8795
 Red. masses --     1.6971                 1.4898                 2.1199
 Frc consts  --     1.0861                 0.9802                 1.7007
 IR Inten    --    52.8916                 4.0672                25.2025
 Atom AN      X      Y      Z        X      Y      Z        X      Y      Z
   1   6    -0.03   0.11  -0.03     0.01   0.05   0.17     0.06  -0.02   0.00
   2   6     0.07  -0.11   0.03     0.00  -0.03  -0.10    -0.07   0.16  -0.03
   3   1     0.52   0.04  -0.02    -0.02  -0.17  -0.67    -0.04   0.01   0.02
   4   1    -0.29  -0.32   0.11    -0.05  -0.17  -0.61     0.25   0.29  -0.10
   5   6    -0.10  -0.06   0.02     0.00   0.00   0.03    -0.08  -0.13   0.05
   6   1    -0.05  -0.29   0.06     0.04   0.09   0.25     0.08   0.38  -0.18
   7   8    -0.02   0.05  -0.01     0.00   0.00  -0.01     0.07  -0.05   0.01
   8   7     0.01   0.01   0.05    -0.01   0.00  -0.01    -0.11  -0.03   0.06
   9   6     0.03   0.03  -0.05     0.01   0.00   0.00     0.03   0.04  -0.04
  10   1    -0.22   0.15   0.16     0.00   0.00  -0.01    -0.13   0.10   0.07
  11   1     0.09  -0.19   0.01     0.02  -0.01  -0.02     0.21  -0.41  -0.06
  12   1     0.20  -0.24  -0.04    -0.02   0.02   0.00     0.19  -0.30  -0.03
  13   6     0.03   0.00  -0.04     0.01   0.00   0.00     0.06   0.03  -0.03
  14   1    -0.05  -0.21   0.12    -0.01  -0.01   0.00    -0.06  -0.14   0.04
  15   1     0.01   0.21  -0.01    -0.01  -0.01   0.00    -0.01   0.15   0.00
  16   1    -0.02   0.17   0.01     0.00   0.04  -0.01    -0.02   0.37  -0.10
                    22                     23                     24
                     A                      A                      A
 Frequencies --  1210.6727              1298.8231              1314.9654
 Red. masses --     1.9693                 1.7277                 1.1023
 Frc consts  --     1.7006                 1.7172                 1.1230
 IR Inten    --     1.3958                65.6251                 0.0381
 Atom AN      X      Y      Z        X      Y      Z        X      Y      Z
   1   6    -0.04   0.01   0.00    -0.04   0.02   0.00    -0.01  -0.02   0.01
   2   6     0.01  -0.04   0.01    -0.01  -0.04   0.01    -0.06  -0.01   0.01
   3   1    -0.02   0.00   0.00     0.24   0.00   0.00     0.60  -0.08  -0.02
   4   1    -0.12  -0.10   0.04     0.02   0.12  -0.04     0.36   0.54  -0.16
   5   6     0.01   0.00  -0.01    -0.10  -0.08   0.03    -0.01  -0.02   0.00
   6   1     0.24   0.29  -0.09     0.45   0.60  -0.26    -0.19  -0.20   0.09
   7   8     0.02   0.00   0.00     0.00   0.01   0.00     0.00   0.01   0.00
   8   7    -0.09   0.23   0.00     0.16  -0.01  -0.07     0.01   0.04   0.00
   9   6     0.02  -0.07  -0.02    -0.07   0.05   0.02     0.02  -0.04   0.00
[...]
    A7        2.15687  -0.00003   0.00000  -0.00010  -0.00010   2.15676
    A8        2.06152   0.00005   0.00000   0.00020   0.00020   2.06172
    A9        2.06221  -0.00002   0.00000  -0.00010  -0.00010   2.06211
   A10        2.05400   0.00004   0.00000   0.00017   0.00017   2.05417
   A11        2.05417  -0.00002   0.00000  -0.00007  -0.00007   2.05410
   A12        1.97304  -0.00002   0.00000   0.00000   0.00000   1.97304
   A13        1.92479   0.00002   0.00000   0.00009   0.00009   1.92488
   A14        1.90296   0.00000   0.00000   0.00002   0.00002   1.90298
   A15        1.96649   0.00000   0.00000   0.00000   0.00000   1.96648
   A16        1.88648  -0.00001   0.00000  -0.00004  -0.00004   1.88643
   A17        1.89179   0.00000   0.00000  -0.00001  -0.00001   1.89177
   A18        1.88941  -0.00001   0.00000  -0.00005  -0.00005   1.88936
   A19        1.91896  -0.00001   0.00000  -0.00014  -0.00014   1.91881
   A20        1.96741   0.00001   0.00000   0.00006   0.00006   1.96747
   A21        1.90320   0.00000   0.00000   0.00010   0.00010   1.90330
   A22        1.89156   0.00000   0.00000  -0.00001  -0.00001   1.89155
   A23        1.88760   0.00001   0.00000   0.00002   0.00002   1.88763
   A24        1.89336   0.00000   0.00000  -0.00004  -0.00004   1.89332
    D1       -3.13432   0.00000   0.00000  -0.00002  -0.00002  -3.13434
    D2        0.00069   0.00000   0.00000   0.00007   0.00007   0.00076
    D3        0.00585   0.00000   0.00000  -0.00010  -0.00010   0.00575
    D4        0.05659   0.00000   0.00000  -0.00006  -0.00006   0.05653
    D5        3.11937   0.00000   0.00000  -0.00004  -0.00004   3.11933
    D6       -3.07870   0.00000   0.00000  -0.00015  -0.00015  -3.07885
    D7        0.58875   0.00001   0.00000  -0.00068  -0.00068   0.58806
    D8        3.04580   0.00000   0.00000  -0.00054  -0.00054   3.04527
    D9       -2.62731   0.00000   0.00000  -0.00067  -0.00067  -2.62797
   D10       -0.70721   0.00000   0.00000   0.00058   0.00058  -0.70664
   D11       -2.77593   0.00000   0.00000   0.00057   0.00057  -2.77537
   D12        3.08846   0.00000   0.00000   0.00047   0.00047   3.08893
   D13        0.88344   0.00000   0.00000   0.00154   0.00154   0.88497
   D14       -1.22912   0.00000   0.00000   0.00160   0.00160  -1.22752
   D15       -2.91231   0.00001   0.00000   0.00175   0.00175  -2.91056
         Item               Value     Threshold  Converged?
 Maximum Force            0.000047     0.000450     YES
 RMS     Force            0.000013     0.000300     YES
 Maximum Displacement     0.003596     0.001800     NO 
 RMS     Displacement     0.000884     0.001200     YES
 Predicted change in Energy=-2.517662D-08
 GradGradGradGradGradGradGradGradGradGradGradGradGradGradGradGradGradGrad

 1\1\GINC-WOLF01\Freq\RPM3\ZDO\C5H9N1O1\XDANEK7\16-Dec-2012\0\\#N Geom=
 AllCheck Guess=Read SCRF=Check GenChk RPM3/ZDO Freq\\reaktant2\\0,1\C,
 -3.990376,0.1383,1.231111\C,-2.790515,0.671796,1.022764\H,-4.120639,-0
 .903579,1.509822\H,-4.917899,0.699593,1.140092\C,-2.611191,2.098238,0.
 65058\H,-1.874193,0.069243,1.125837\O,-3.534283,2.896133,0.564422\N,-1
 .267933,2.590336,0.473159\C,-0.261061,1.656837,-0.077785\H,-0.392011,0
 .653346,0.357657\H,0.742448,2.015231,0.187387\H,-0.317742,1.570072,-1.
 172786\C,-1.102462,3.976999,-0.0178\H,-1.709448,4.663433,0.58701\H,-1.
 394971,4.092292,-1.071671\H,-0.049313,4.270322,0.085231\\Version=EM64L
 -G03RevE.01\HF=-0.0416377\RMSD=0.000e+00\RMSF=1.452e-05\ZeroPoint=0.13
 23056\Thermal=0.1408148\Dipole=0.7529686,-0.8174926,-0.2347055\DipoleD
 eriv=0.1234649,0.1625582,-0.0550987,0.0119476,-0.0146321,-0.0247429,-0
 .0340431,-0.0495616,-0.0953542,-0.4375617,-0.2655469,0.0904366,-0.2035
 089,-0.4410968,0.0432339,0.1160362,0.1000085,-0.3413406,0.0092642,0.01
 22274,0.0033911,0.0376853,0.0886831,0.0020868,-0.004858,0.0016448,0.10
 65871,0.1195963,-0.002771,0.000694,-0.0460178,0.0415467,0.0246143,0.01
 41147,0.0254532,0.1150859,2.0121515,0.072026,-0.0947573,0.1754496,1.03
 88179,-0.1994272,-0.2406542,-0.2713739,0.5952296,0.1182778,-0.0341899,
 0.0062947,-0.0392735,0.0586516,0.0227403,0.0044924,0.0222311,0.1513777
 ,-1.0788696,0.1876994,0.0321364,0.4616038,-0.73556,0.0652867,0.0177326
 ,0.0974674,-0.4380401,-1.1198987,-0.0735683,0.0203217,-0.3133275,-0.31
 72667,0.0698796,-0.1685483,0.0199462,-0.5338677,0.1624774,-0.1481744,-
 0.0570928,-0.1691921,0.0082703,0.1353818,0.1159536,0.0663075,0.2080104
 ,0.0581318,0.0422148,-0.0042831,-0.0158601,0.0254929,-0.0055197,0.0052
 426,-0.0332869,0.021274,0.0312562,-0.0036022,0.0142123,0.0090248,0.027
 9796,-0.0189868,0.0258041,-0.0112916,0.0013815,-0.0367582,0.0170415,-0
 .0103585,0.0294835,-0.0053832,0.0035747,0.0081643,-0.0064126,-0.009862
 6,-0.0261163,0.0689721,0.0701539,0.0834022,0.202279,-0.1400221,0.13896
 89,-0.0314939,0.1963413,0.0477845,-0.0226904,-0.015581,0.0198444,0.043
 8026,0.012366,-0.0098176,0.0364909,0.0316583,-0.0066834,-0.0197228,0.0
 072439,-0.0334939,-0.0291038,-0.0180744,0.0031102,0.0055509,-0.0113554
 ,0.0242199,0.0076054,-0.0078446,-0.007637,0.0082124,0.0275068,0.008344
 8,0.0283107,0.0027596\PG=C01 [X(C5H9N1O1)]\NImag=0\\0.89960756,0.14657
 561,0.62776571,-0.08252941,-0.13683169,0.17250096,-0.58673119,-0.21588
 288,0.08607363,0.92038962,-0.20580945,-0.18274906,0.04166289,0.1248604
 1,0.61631553,0.08335420,0.04253490,-0.08214800,-0.08033774,-0.12811800
 ,0.17552251,-0.04249961,-0.02423149,0.00646079,-0.00359996,-0.02594482
 ,0.00745241,0.04813072,-0.03037008,-0.30072973,0.06933429,-0.00419803,
 -0.00584011,0.00393550,0.03285323,0.32179528,0.00794366,0.06898823,-0.
 05949399,0.00191817,0.00526641,0.00711304,-0.01010086,-0.07991224,0.04
 335005,-0.23941545,0.12253291,-0.02027640,-0.02203271,0.00977262,-0.00
 061326,0.00159473,0.00313205,-0.00044490,0.26280973,0.12682968,-0.1186
 5469,0.01207763,-0.01117199,0.01121751,0.00074055,0.01824253,-0.015065
 67,0.00485387,-0.13200960,0.12385747,-0.02144406,0.01215005,-0.0458877
 3,0.00486547,-0.00025534,0.01129557,-0.00441685,0.00579209,0.00665538,
 0.02017078,-0.01855207,0.02635694,-0.00631260,-0.03627806,0.01004824,-
 0.08356747,-0.02894456,0.00968291,-0.00294500,-0.00007222,0.00048301,-
 0.00183655,-0.00230037,0.00053127,0.82323591,-0.03268650,-0.02655879,0
 .01126436,-0.00748181,-0.24456977,0.04361963,0.00056630,-0.00013525,0.
 00228259,-0.00193473,0.00031644,-0.00175505,-0.25398057,0.83569480,0.0
 0904229,0.01128232,0.00563355,0.00018283,0.04292071,-0.09441810,0.0005
 8807,0.00260477,0.00904050,0.00025679,-0.00174108,-0.00645824,-0.01690
 389,-0.11807691,0.20520345,-0.02209041,0.00917224,-0.00048741,-0.21077
 144,0.11469372,-0.02066222,-0.00144020,-0.00108769,0.00001746,-0.00087
 151,-0.00090747,0.00078497,0.00519107,0.00383897,-0.00055664,0.2419315
 2,-0.00927968,0.00898326,0.00076025,0.11945663,-0.11676533,0.01228553,
 -0.00096692,-0.00017873,-0.00121347,-0.00077270,-0.00045899,0.00211370
 ,0.01921222,-0.01625603,0.00542378,-0.11784028,0.13561232,0.00434538,-
 0.00019119,0.00977017,-0.02310791,0.01332865,-0.04356847,0.00004139,-0
 .00120502,-0.00474313,0.00068798,0.00210424,0.00689841,-0.00472718,0.0
 0519526,0.00604272,0.01465353,-0.02493082,0.03028950,-0.00419228,-0.00
 222973,0.00089375,0.00987503,0.03068419,-0.00699015,0.00060519,-0.0003
 3203,0.00001848,-0.00059753,0.00075591,-0.00016470,-0.49007912,0.39902
 531,-0.04419574,-0.00007475,-0.00055943,0.00012964,0.56985196,0.003758
 55,-0.00452137,0.00077007,0.02867417,-0.06064631,0.01551768,-0.0000250
 8,0.00020098,-0.00017781,-0.00107839,-0.00148624,0.00047710,0.36875216
 ,-0.41281012,0.03811581,-0.00166251,-0.00309672,0.00107352,-0.42978792
 ,0.46064192,-0.00065116,0.00124830,-0.00005767,-0.00547903,0.01629773,
 0.01529783,-0.00010049,-0.00032836,-0.00106515,0.00026168,0.00040801,0
 .00050377,-0.04091125,0.03779470,-0.06239114,0.00033489,0.00070646,-0.
 00012792,0.04309386,-0.05563407,0.03104682,0.00182907,0.00097294,-0.00
 031606,-0.00708030,-0.01846469,0.00419453,0.00025334,0.00007483,0.0000
 1467,0.00034055,0.00056861,-0.00015234,-0.19943661,-0.09074033,0.02400
 897,-0.00049866,-0.00168523,0.00041002,-0.07311936,0.03847445,0.002238
 98,0.50576395,0.00129338,-0.00352171,0.00098885,-0.02924953,-0.0184111
 4,0.00814435,-0.00048071,-0.00006674,-0.00010151,0.00036400,0.00031170
 ,0.00005106,-0.05580660,-0.11903578,0.00914964,-0.00154415,-0.00439575
 ,0.00139739,0.01105726,0.02331144,-0.00037618,-0.01084208,0.55199120,0
 .00023193,0.00107543,-0.00044249,0.01045648,0.00763497,0.00976798,0.00
 013269,-0.00016709,-0.00069423,0.00000481,0.00013211,0.00040379,0.0472
 4617,0.01639023,-0.05674684,-0.00003589,0.00048292,-0.00041012,0.00289
 532,0.00409803,0.01514286,-0.15154628,-0.05605199,0.19243959,-0.000440
 86,0.00027640,-0.00011345,-0.00563528,-0.00131145,0.00207188,0.0000459
 1,0.00002805,0.00011838,-0.00005981,-0.00009904,-0.00015036,-0.0357852
 9,0.01315188,0.01382861,-0.00197666,-0.00179540,0.00157202,-0.00325436
 ,-0.00155146,0.00050651,-0.15267190,0.08127712,0.06167335,0.53223820,-
 0.00000147,-0.00000992,0.00005109,-0.00274473,-0.00112308,0.00059408,-
 0.00002397,0.00005092,0.00003816,0.00005912,0.00000249,-0.00001997,0.0
 0712248,0.01105421,0.00335077,-0.00439027,-0.00131697,0.00223720,-0.00
 376733,0.00043700,-0.00097398,0.08114032,-0.15806578,-0.04499550,0.015
 01945,0.54670220,-0.00011670,-0.00014524,0.00011145,0.00249294,0.00127
 959,-0.00072427,-0.00003683,0.00001231,0.00002017,-0.00002248,-0.00005
 212,0.00004637,-0.00476716,-0.00070670,-0.00499276,0.00263504,0.001719
 67,-0.00102637,0.00092537,-0.00255586,0.00236199,0.08289431,-0.0507313
 9,-0.08661574,-0.00880743,-0.00705155,0.51408374,0.00000485,-0.0000583
 2,0.00001996,-0.00737494,0.00058460,0.00168903,-0.00000837,-0.00002615
 ,0.00002282,-0.00002212,0.00003405,-0.00002383,-0.00259184,0.00219855,
 -0.00044884,-0.00918638,-0.00579500,0.00587567,0.00028023,-0.00046926,
 0.00019211,0.00642853,0.01651657,-0.00673761,-0.04398322,-0.03055805,0
 .01303276,0.06348291,0.00011684,-0.00003313,-0.00002811,-0.00164187,0.
 00136929,-0.00007307,-0.00001614,0.00000631,0.00003105,-0.00000008,0.0
 0000172,-0.00003596,0.00305857,-0.00096677,0.00007194,-0.00052817,-0.0
 0219163,0.00112446,-0.00060911,0.00041737,-0.00005561,0.00003483,-0.01
 328770,0.00362560,-0.02931850,-0.24342216,0.09083090,0.03839989,0.2768
 4120,-0.00007725,0.00003289,0.00003499,0.00312943,-0.00057851,-0.00032
 601,0.00001192,0.00000776,0.00000522,0.00000519,-0.00000782,0.00001249
 ,0.00056212,-0.00025252,0.00092161,0.00326045,0.00266640,-0.00304465,-
 0.00012811,0.00020863,-0.00013272,-0.00250806,-0.00868268,0.00677645,0
 .01321615,0.09299666,-0.08212551,-0.02350288,-0.10756074,0.09259883,0.
 00001236,-0.00002096,0.00000259,0.00002139,0.00009571,-0.00001640,-0.0
 0000579,0.00000146,0.00000229,0.00000374,0.00000228,-0.00000191,-0.002
 00330,0.00127526,-0.00015608,-0.00003022,0.00000891,-0.00001604,-0.000
 25362,-0.00030644,0.00012497,-0.01381917,-0.00186830,0.00065682,-0.249
 78498,-0.08006162,-0.05915831,-0.00863508,-0.01061742,0.00027073,0.282
 26934,-0.00004537,0.00005989,-0.00003008,-0.00019705,0.00005219,0.0002
 5247,0.00001118,-0.00000164,-0.00000782,-0.00001198,-0.00001069,0.0000
 0412,0.00136814,-0.00204181,-0.00052718,0.00004995,-0.00002648,-0.0000
 6601,0.00067204,0.00032644,-0.00009079,0.01407129,0.00927805,0.0020074
 9,-0.08288631,-0.07108254,-0.02188563,-0.02444559,-0.01570517,-0.00346
 255,0.09267974,0.08011743,-0.00003508,-0.00000273,-0.00000155,0.000159
 96,-0.00005968,0.00000027,0.00000306,-0.00000348,-0.00000256,-0.000005
 86,-0.00000516,-0.00000027,0.00115066,-0.00119979,0.00021709,-0.000037
 32,0.00000002,0.00001825,0.00048385,0.00016910,-0.00011999,0.00848707,
 0.00304376,0.00411381,-0.06094331,-0.02271257,-0.05665605,0.00881918,0
 .00484449,0.00524158,0.06828667,0.02715732,0.06099271,0.00005864,-0.00
 000085,0.00001363,0.00003933,-0.00014218,-0.00012614,0.00000125,0.0000
 0019,0.00000976,0.00000804,0.00001667,-0.00000820,0.00128138,0.0009643
 6,0.00127979,-0.00001795,-0.00005458,0.00007602,-0.00017123,0.00015819
 ,-0.00034228,-0.00190479,0.00446751,0.01897025,-0.04095721,-0.00212926
 ,-0.02039195,0.00323945,-0.00020652,0.00442921,-0.00652451,-0.00316598
 ,-0.02623312,0.04456619,-0.00011102,0.00004812,-0.00000612,-0.00027061
 ,0.00008697,-0.00002836,0.00000859,0.00000158,0.00001177,-0.00001850,-
 0.00002488,-0.00000787,-0.00163092,-0.00048869,-0.00067587,0.00013839,
 0.00002956,0.00001084,0.00021113,-0.00024578,0.00028443,0.00575806,-0.
 00029228,-0.01672435,-0.00224347,-0.04103516,-0.01390108,0.00202003,-0
 .00201260,0.02559770,-0.00385622,0.00170848,-0.01171800,-0.00011417,0.
 04308392,-0.00000738,-0.00002274,-0.00001316,0.00005098,0.00010726,0.0
 0006831,-0.00000365,-0.00000073,-0.00000805,0.00000091,-0.00000251,0.0
 0000325,-0.00019987,-0.00018699,-0.00028601,-0.00001030,0.00000725,-0.
 00009266,0.00000504,-0.00013588,-0.00000628,0.00630987,-0.00548803,-0.
 00633280,-0.01890956,-0.01467464,-0.28972310,-0.00026460,0.00775841,-0
 .01974589,-0.00928292,-0.00393468,-0.01444939,0.02214291,0.01771744,0.
 33050870,0.00019522,-0.00084244,0.00021297,-0.00355481,-0.00024241,0.0
 0032031,-0.00013320,-0.00000677,-0.00000114,0.00007687,0.00005169,0.00
 000852,-0.00716933,-0.03204684,0.01315735,-0.00018476,0.00004749,0.000
 08098,-0.00565545,-0.00424455,0.00072454,-0.07773462,-0.01075221,0.014
 63590,0.00134044,0.02066117,-0.00939445,-0.00182147,0.00140375,0.00140
 483,-0.00083463,0.00209921,-0.00000064,0.00055295,0.00004668,0.0000564
 5,0.55714739,-0.00023974,-0.00000104,-0.00004306,0.00016529,0.00097952
 ,0.00075059,0.00002266,-0.00004405,-0.00007110,-0.00004027,0.00001334,
 0.00004312,-0.02023377,-0.01743652,0.00632559,0.00005208,-0.00000837,-
 0.00007728,-0.00252995,-0.00166879,0.00087098,-0.01368427,-0.24009349,
 0.06736022,0.00977290,-0.03506944,0.00249165,0.00140641,-0.00099057,-0
 .00077186,0.00165821,-0.00124661,0.00006378,0.00049010,-0.00089681,-0.
 00076347,-0.00894232,0.52527960,-0.00002561,-0.00016233,-0.00000619,-0
 .00064688,0.00051276,0.00233923,-0.00004434,-0.00006544,-0.00019165,-0
 .00000989,0.00003867,0.00018398,-0.00167611,0.00352405,-0.00261417,0.0
 0011683,0.00001239,-0.00002169,0.00273020,-0.00122415,-0.00042424,0.02
 359219,0.08351899,-0.08334863,-0.00404618,-0.01051398,0.00434885,0.001
 45667,-0.00057527,-0.00029207,-0.00076266,0.00072705,0.00070820,0.0003
 7100,-0.00089367,0.00044661,-0.01137077,0.00307327,0.51731323,-0.00002
 632,-0.00000684,-0.00000511,-0.00006462,0.00015084,0.00009809,-0.00000
 166,-0.00000306,-0.00000909,0.00000157,-0.00000540,0.00000623,0.001717
 34,-0.00178796,-0.00019391,0.00001812,0.00001907,-0.00001600,-0.003011
 27,-0.00080330,0.00011749,0.00579732,-0.00010434,-0.00353076,-0.000081
 43,-0.00062218,0.00078095,0.00018683,-0.00007830,-0.00008628,-0.000006
 79,0.00002434,0.00001170,-0.00004252,0.00002015,0.00001098,-0.12236887
 ,0.08906712,0.08213857,0.13771891,-0.00008828,0.00005604,-0.00001660,0
 .00023692,0.00022871,0.00010974,0.00001060,-0.00000980,-0.00001200,-0.
 00002128,-0.00000835,0.00001439,-0.00174880,-0.00296826,-0.00030302,0.
 00005803,0.00002356,-0.00002367,-0.00274951,-0.00195593,0.00001909,0.0
 1385441,-0.01381544,-0.00989437,-0.00067227,-0.00291796,0.00078522,0.0
 0040719,-0.00019695,-0.00021547,-0.00013825,0.00013451,0.00010635,-0.0
 0006611,0.00005257,0.00006770,0.08648995,-0.13452583,-0.08756531,-0.09
 835917,0.15162607,-0.00001319,0.00000512,0.00000767,0.00000057,0.00001
 273,-0.00016097,0.00000354,-0.00000115,0.00001398,-0.00000542,0.000004
 14,-0.00000446,0.00009590,-0.00015505,0.00097401,-0.00001147,-0.000006
 93,0.00002057,-0.00010148,-0.00026864,-0.00005806,-0.00580230,0.004424
 68,0.00788969,0.00044716,0.00155135,-0.00029299,-0.00024194,0.00012480
 ,0.00016742,0.00006017,-0.00004261,-0.00005762,-0.00000301,0.00003118,
 -0.00003399,0.08286132,-0.09074938,-0.12318522,-0.09543258,0.10116154,
 0.13730673,-0.00000211,0.00000719,0.00000264,-0.00002201,0.00002051,-0
 .00011931,0.00000066,0.00000637,0.00000948,0.00000530,-0.00000739,-0.0
 0000509,0.00127400,-0.00088769,0.00054173,0.00000661,0.00001430,-0.000
 00350,-0.00040582,0.00063287,-0.00026235,0.00403378,-0.00054097,0.0033
 7994,0.00015725,0.00043633,-0.00005345,-0.00000663,-0.00001701,0.00000
 057,-0.00006232,-0.00000060,-0.00004768,-0.00010663,0.00008394,0.00012
 072,-0.05985877,0.00533601,-0.06662839,0.00594188,0.00113862,0.0143287
 7,0.06280943,0.00001610,0.00003587,0.00000718,0.00013277,-0.00013572,-
 0.00042327,0.00000523,0.00001699,0.00003327,0.00000716,-0.00001436,-0.
 00002865,0.00142786,-0.00020380,0.00106758,-0.00000597,0.00001995,0.00
 000955,-0.00029053,0.00064420,0.00010216,0.00318169,-0.00864193,0.0243
 7170,0.00069721,-0.00041389,0.00115730,-0.00005744,0.00003746,-0.00006
 153,0.00003256,-0.00006175,0.00000785,-0.00019875,0.00009742,-0.000380
 97,0.00489875,-0.04009377,0.01646273,-0.00208781,0.00077386,-0.0162640
 1,-0.00505285,0.04538733,0.00000750,-0.00002602,0.00000303,-0.00006852
 ,-0.00002892,0.00001871,-0.00000386,-0.00000029,-0.00000131,0.00000105
 ,0.00000108,-0.00000338,-0.00052377,0.00072991,-0.00023225,-0.00000653
 ,-0.00000981,-0.00001029,0.00043779,-0.00032560,-0.00005726,0.00015284
 ,0.00819665,-0.00474517,-0.00041484,0.00028957,0.00040604,0.00003732,-
 0.00003501,-0.00002761,-0.00001777,0.00000043,-0.00004269,-0.00016968,
 0.00035573,-0.00026778,-0.06590028,0.01833478,-0.27220669,-0.00051991,
 -0.00530905,-0.02558439,0.07682810,-0.02125475,0.31050182,0.00000048,0
 .00001679,-0.00000120,0.00011129,-0.00000078,0.00000167,0.00000309,-0.
 00000150,-0.00000174,-0.00000350,0.00000002,0.00000030,-0.00098555,0.0
 0052103,-0.00042988,-0.00000293,-0.00000965,-0.00000189,0.00020898,-0.
 00052418,0.00015038,0.00182189,-0.00378292,0.00156933,0.00084352,-0.00
 013915,-0.00001415,0.00000856,0.00001999,0.00001182,-0.00034417,-0.000
 22383,-0.00009947,-0.00002035,-0.00004209,-0.00001926,-0.28000040,-0.0
 6230127,-0.02519496,-0.02577720,0.00164789,0.00381462,-0.01376319,-0.0
 0270580,-0.00983986,0.31790040,0.00003818,-0.00017139,0.00003845,-0.00
 068491,-0.00000739,0.00015788,-0.00003058,0.00000070,-0.00000911,0.000
 01974,0.00000431,0.00000940,0.00005427,-0.00360521,0.00101391,-0.00003
 631,0.00002817,0.00001251,0.00044505,0.00045676,-0.00027434,-0.0227111
 9,-0.00526363,0.00065384,-0.00034495,-0.00379342,-0.00124701,-0.000157
 79,0.00013518,0.00008391,0.00111499,-0.00149915,0.00030846,-0.00001858
 ,-0.00011093,-0.00006801,-0.05862099,-0.05420087,-0.00686898,0.0145777
 4,0.00350494,0.00017170,-0.00116957,0.00255353,-0.00091841,0.06752495,
 0.06196970,-0.00002426,0.00006440,-0.00001442,0.00030869,0.00001592,-0
 .00007905,0.00001296,-0.00000260,0.00000329,-0.00001119,0.00000070,-0.
 00000430,-0.00009271,0.00153296,0.00010839,0.00000448,-0.00001696,0.00
 000697,-0.00003316,-0.00010914,0.00008812,0.00802030,0.00251715,0.0027
 9277,-0.00004634,-0.00016860,0.00077616,0.00007464,-0.00004758,-0.0000
 6252,0.00000795,-0.00010185,0.00003990,-0.00001884,-0.00005332,-0.0000
 6592,-0.02679513,-0.00683607,-0.04305077,0.01663031,0.00107543,0.00299
 903,-0.02809273,-0.00480679,-0.00774898,0.03005444,0.00693621,0.044212
 91\\-0.00001819,-0.00000018,0.00000861,0.00001387,0.00001206,-0.000011
 58,0.00000883,-0.00000065,-0.00000206,0.00000750,0.00000375,-0.0000034
 9,-0.00007194,-0.00001665,0.00001101,0.00000986,0.00000703,-0.00000138
 ,0.00001592,-0.00001279,0.00000023,0.00004707,0.00000515,-0.00001173,0
 .00000530,-0.00000726,-0.00000338,-0.00001024,-0.00000049,0.00000381,-
 0.00000640,0.00000056,0.00000135,-0.00000330,-0.00000079,0.00000147,0.
 00000791,0.00001137,0.00000251,-0.00000106,0.00000418,-0.00000131,-0.0
 0000026,-0.00000510,0.00000278,-0.00000486,-0.00000018,0.00000315\\\@


 Sometimes the fool who rushes in gets the job done.
                                    -- Al Bernstein
 Job cpu time:  0 days  0 hours  0 minutes  2.1 seconds.
 File lengths (MBytes):  RWF=     13 Int=      0 D2E=      0 Chk=      6 Scr=      1
 Normal termination of Gaussian 03 at Sun Dec 16 17:38:03 2012.
