 Entering Gaussian System, Link 0=g03
 Input=produkt.com
 Output=produkt.log
 Initial command:
 /software/ncbr/softrepo/secret/gaussian/03.E1/x86_64/node/l1.exe /scratch/xdanek7/QM/03_F_analyza/produkt/Gau-13156.inp -scrdir=/scratch/xdanek7/QM/03_F_analyza/produkt/
 Entering Link 1 = /software/ncbr/softrepo/secret/gaussian/03.E1/x86_64/node/l1.exe PID=     13158.
  
 Copyright (c) 1988,1990,1992,1993,1995,1998,2003,2004,2007, Gaussian, Inc.
                  All Rights Reserved.
  
 This is the Gaussian(R) 03 program.  It is based on the
 the Gaussian(R) 98 system (copyright 1998, Gaussian, Inc.),
 the Gaussian(R) 94 system (copyright 1995, Gaussian, Inc.),
 the Gaussian 92(TM) system (copyright 1992, Gaussian, Inc.),
 the Gaussian 90(TM) system (copyright 1990, Gaussian, Inc.),
 the Gaussian 88(TM) system (copyright 1988, Gaussian, Inc.),
 the Gaussian 86(TM) system (copyright 1986, Carnegie Mellon
 University), and the Gaussian 82(TM) system (copyright 1983,
 Carnegie Mellon University). Gaussian is a federally registered
 trademark of Gaussian, Inc.
  
 This software contains proprietary and confidential information,
 including trade secrets, belonging to Gaussian, Inc.
  
 This software is provided under written license and may be
 used, copied, transmitted, or stored only in accord with that
 written license.
  
 The following legend is applicable only to US Government
 contracts under FAR:
  
                    RESTRICTED RIGHTS LEGEND
  
 Use, reproduction and disclosure by the US Government is
 subject to restrictions as set forth in subparagraphs (a)
 and (c) of the Commercial Computer Software - Restricted
 Rights clause in FAR 52.227-19.
  
 Gaussian, Inc.
 340 Quinnipiac St., Bldg. 40, Wallingford CT 06492
  
  
 ---------------------------------------------------------------
 Warning -- This program may not be used in any manner that
 competes with the business of Gaussian, Inc. or will provide
 assistance to any competitor of Gaussian, Inc.  The licensee
 of this program is prohibited from giving any competitor of
 Gaussian, Inc. access to this program.  By using this program,
 the user acknowledges that Gaussian, Inc. is engaged in the
 business of creating and licensing software in the field of
 computational chemistry and represents and warrants to the
 licensee that it is not a competitor of Gaussian, Inc. and that
 it will not use this program in any manner prohibited above.
 ---------------------------------------------------------------
  

 Cite this work as:
 Gaussian 03, Revision E.01,
 M. J. Frisch, G. W. Trucks, H. B. Schlegel, G. E. Scuseria, 
 M. A. Robb, J. R. Cheeseman, J. A. Montgomery, Jr., T. Vreven, 
 K. N. Kudin, J. C. Burant, J. M. Millam, S. S. Iyengar, J. Tomasi, 
 V. Barone, B. Mennucci, M. Cossi, G. Scalmani, N. Rega, 
 G. A. Petersson, H. Nakatsuji, M. Hada, M. Ehara, K. Toyota, 
 R. Fukuda, J. Hasegawa, M. Ishida, T. Nakajima, Y. Honda, O. Kitao, 
 H. Nakai, M. Klene, X. Li, J. E. Knox, H. P. Hratchian, J. B. Cross, 
 V. Bakken, C. Adamo, J. Jaramillo, R. Gomperts, R. E. Stratmann, 
 O. Yazyev, A. J. Austin, R. Cammi, C. Pomelli, J. W. Ochterski, 
 P. Y. Ayala, K. Morokuma, G. A. Voth, P. Salvador, J. J. Dannenberg, 
 V. G. Zakrzewski, S. Dapprich, A. D. Daniels, M. C. Strain, 
 O. Farkas, D. K. Malick, A. D. Rabuck, K. Raghavachari, 
 J. B. Foresman, J. V. Ortiz, Q. Cui, A. G. Baboul, S. Clifford, 
 J. Cioslowski, B. B. Stefanov, G. Liu, A. Liashenko, P. Piskorz, 
 I. Komaromi, R. L. Martin, D. J. Fox, T. Keith, M. A. Al-Laham, 
 C. Y. Peng, A. Nanayakkara, M. Challacombe, P. M. W. Gill, 
 B. Johnson, W. Chen, M. W. Wong, C. Gonzalez, and J. A. Pople, 
 Gaussian, Inc., Wallingford CT, 2004.
 
 ******************************************
 Gaussian 03:  EM64L-G03RevE.01 11-Sep-2007
                16-Dec-2012 
 ******************************************
 -----------------
 # PM3 Freq NoSymm
 -----------------
 1/10=4,30=1,38=1/1,3;
 2/15=1,17=6,18=5,40=1/2;
 3/5=2,11=9,12=1,16=1,25=1,30=1/1;
 4/5=3,11=1,20=7,22=2,24=3,35=1/1,2;
 6/7=2,8=2,9=2,10=2/1;
 7/8=1,25=1,30=1/16;
 1/10=4,30=1/3;
 99//99;
 -------
 produkt
 -------
 Symbolic Z-matrix:
 Charge =  0 Multiplicity = 1
 C                    -2.03069   3.49028   0.03179 
 C                    -3.07103   2.58068  -0.51231 
 C                    -2.85627   1.29295  -0.78232 
 C                    -1.54143   0.60571  -0.56136 
 N                    -1.61674  -0.33417   0.59632 
 C                    -2.25868  -1.58528   0.39349 
 O                    -2.36956  -2.19255  -0.66044 
 O                    -2.68262  -2.10165   1.58697 
 C                    -3.18863  -3.41963   1.59176 
 H                    -2.43817  -4.14416   1.25881 
 H                    -4.08925  -3.50943   0.9753 
 H                    -3.42857  -3.57245   2.64697 
 H                    -1.83986   0.12593   1.4547 
 C                    -0.82527   2.74703   0.58514 
 C                    -0.40224   1.6289   -0.36681 
 H                    -1.05127   2.33907   1.59115 
 H                     0.01507   3.45243   0.7374 
 C                     0.89794   0.97187   0.09946 
 H                    -0.21595   2.10206  -1.36569 
 O                     1.25271   0.94778   1.26609 
 N                     1.81975   0.48467  -0.90137 
 H                    -1.29778  -0.00646  -1.47532 
 H                    -2.47215   4.13022   0.82099 
 H                    -1.72274   4.18115  -0.78004 
 H                    -4.05091   3.0323   -0.70831 
 H                    -3.65599   0.6674   -1.19843 
 C                     1.2759   -0.30104  -2.03251 
 H                     1.25239  -1.38008  -1.81711 
 H                     1.91608  -0.13931  -2.90993 
 H                     0.25169   0.01161  -2.29278 
 C                     3.11578  -0.04958  -0.42017 
 H                     3.59668   0.68072   0.24344 
 H                     3.77322  -0.21405  -1.28403 
 H                     3.01217  -0.99885   0.12558 
 

 GradGradGradGradGradGradGradGradGradGradGradGradGradGradGradGradGradGrad
 Berny optimization.
 Initialization pass.
 Trust Radius=3.00D-01 FncErr=1.00D-07 GrdErr=1.00D-07
 Number of steps in this run=   2 maximum allowed number of steps=   2.
 GradGradGradGradGradGradGradGradGradGradGradGradGradGradGradGradGradGrad

                          Input orientation:                          
 ---------------------------------------------------------------------
 Center     Atomic     Atomic              Coordinates (Angstroms)
 Number     Number      Type              X           Y           Z
 ---------------------------------------------------------------------
    1          6             0       -2.030689    3.490280    0.031794
    2          6             0       -3.071033    2.580684   -0.512308
    3          6             0       -2.856267    1.292945   -0.782324
    4          6             0       -1.541431    0.605713   -0.561364
    5          7             0       -1.616740   -0.334169    0.596320
    6          6             0       -2.258678   -1.585282    0.393486
    7          8             0       -2.369558   -2.192553   -0.660442
    8          8             0       -2.682616   -2.101651    1.586974
    9          6             0       -3.188633   -3.419628    1.591756
   10          1             0       -2.438173   -4.144159    1.258812
   11          1             0       -4.089254   -3.509428    0.975296
   12          1             0       -3.428574   -3.572453    2.646971
   13          1             0       -1.839864    0.125927    1.454700
   14          6             0       -0.825273    2.747025    0.585143
   15          6             0       -0.402243    1.628904   -0.366811
   16          1             0       -1.051265    2.339072    1.591149
   17          1             0        0.015072    3.452427    0.737398
   18          6             0        0.897941    0.971869    0.099461
   19          1             0       -0.215951    2.102055   -1.365686
   20          8             0        1.252712    0.947776    1.266085
   21          7             0        1.819752    0.484667   -0.901365
   22          1             0       -1.297776   -0.006455   -1.475318
   23          1             0       -2.472151    4.130221    0.820993
   24          1             0       -1.722741    4.181152   -0.780037
   25          1             0       -4.050907    3.032302   -0.708309
   26          1             0       -3.655985    0.667402   -1.198434
   27          6             0        1.275901   -0.301043   -2.032513
   28          1             0        1.252392   -1.380084   -1.817107
   29          1             0        1.916082   -0.139312   -2.909928
   30          1             0        0.251687    0.011606   -2.292778
   31          6             0        3.115779   -0.049575   -0.420169
   32          1             0        3.596676    0.680721    0.243443
   33          1             0        3.773219   -0.214046   -1.284026
   34          1             0        3.012169   -0.998849    0.125581
 ---------------------------------------------------------------------
                    Distance matrix (angstroms):
                    1          2          3          4          5
     1  C    0.000000
     2  C    1.485169   0.000000
     3  C    2.484481   1.333156   0.000000
     4  C    2.985287   2.498519   1.499968   0.000000
     5  N    3.887988   3.440987   2.466695   1.493078   0.000000
     6  C    5.093538   4.340006   3.166044   2.495324   1.420743
     7  O    5.734860   4.826780   3.521425   2.919915   2.366385
     8  O    5.840658   5.146078   4.143309   3.639709   2.289428
     9  C    7.177823   6.359612   5.287255   4.853099   3.603026
    10  H    7.743144   6.982900   5.822640   5.165121   3.953438
    11  H    7.356888   6.351315   5.260444   5.078101   4.042180
    12  H    7.659989   6.926036   5.979941   5.595694   4.239622
    13  H    3.657861   3.377977   2.720162   2.093746   0.999144
    14  C    1.520411   2.505096   2.847675   2.532307   3.181242
    15  C    2.505083   2.837163   2.511524   1.543541   2.501256
    16  H    2.171667   2.926153   3.160030   2.806797   2.907862
    17  H    2.164359   3.441765   3.900962   3.494748   4.125654
    18  C    3.863139   4.326119   3.869717   2.553683   2.876843
    19  H    2.678319   3.018084   2.822453   2.154732   3.427370
    20  O    4.332265   4.952155   4.604219   3.356160   3.213366
    21  N    4.972966   5.335207   4.746856   3.380504   3.837060
    22  H    3.877590   3.281024   2.144196   1.126690   2.121513
    23  H    1.107812   2.130121   3.281510   3.898629   4.551152
    24  H    1.109597   2.109755   3.102680   3.586705   4.721622
    25  H    2.199722   1.096598   2.111399   3.493909   4.354349
    26  H    3.481909   2.115085   1.097270   2.209299   2.895308
    27  C    5.437741   5.432422   4.602019   3.305124   3.908866
    28  H    6.157719   6.006845   5.009684   3.650442   3.892363
    29  H    6.115936   6.165896   5.417875   4.245611   4.981222
    30  H    4.765926   4.561875   3.685469   2.562427   3.457957
    31  C    6.262665   6.723347   6.131790   4.705204   4.848812
    32  H    6.293302   6.974193   6.562583   5.201296   5.322991
    33  H    7.009905   7.433024   6.817097   5.425841   5.709798
    34  H    6.752147   7.086981   6.365151   4.876657   4.700021
                    6          7          8          9         10
     6  C    0.000000
     7  O    1.221408   0.000000
     8  O    1.367762   2.270935   0.000000
     9  C    2.380230   2.692395   1.411786   0.000000
    10  H    2.707187   2.738067   2.083094   1.094983   0.000000
    11  H    2.718796   2.714250   2.081974   1.095082   1.791461
    12  H    3.224236   3.736926   1.960435   1.092889   1.798535
    13  H    2.056652   3.182727   2.385337   3.795909   4.316246
    14  C    4.567304   5.323132   5.288010   6.680296   7.109409
    15  C    3.788851   4.308141   4.788989   6.089961   6.333713
    16  H    4.277008   5.229071   4.730893   6.142554   6.638241
    17  H    5.537755   6.285397   6.232743   7.630124   7.999900
    18  C    4.073047   4.611677   4.947687   6.181608   6.216711
    19  H    4.567699   4.855826   5.698577   6.933418   7.130319
    20  O    4.416749   5.166625   4.988866   6.237453   6.288918
    21  N    4.753411   4.977536   5.757794   6.822250   6.649986
    22  H    2.628394   2.567443   3.960462   4.963067   5.088867
    23  H    5.735443   6.494817   6.282297   7.622837   8.286025
    24  H    5.908989   6.407557   6.782162   8.096054   8.601137
    25  H    5.074260   5.488928   5.787747   6.903710   7.613939
    26  H    3.092129   3.181772   4.046430   4.970653   5.538253
    27  C    4.475264   4.330099   5.657980   6.541633   6.276680
    28  H    4.154087   3.887995   5.252877   5.958422   5.542712
    29  H    5.516520   5.257632   6.724651   7.555379   7.237177
    30  H    4.008491   3.793911   5.303628   6.220834   6.092579
    31  C    5.648470   5.893981   6.470010   7.426352   7.101477
    32  H    6.280323   6.683462   6.998298   8.041842   7.792935
    33  H    6.409221   6.483599   7.313241   8.186163   7.777738
    34  H    5.310132   5.568280   5.981841   6.816142   6.394014
                   11         12         13         14         15
    11  H    0.000000
    12  H    1.798602   0.000000
    13  H    4.301789   4.198038   0.000000
    14  C    7.067460   7.138915   2.942054   0.000000
    15  C    6.465118   6.730206   2.764705   1.528190   0.000000
    16  H    6.619185   6.458520   2.353406   1.108849   2.181553
    17  H    8.085141   8.053205   3.875682   1.107679   2.172249
    18  C    6.761747   6.771957   3.169837   2.521216   1.529570
    19  H    7.209120   7.656527   3.807460   2.143127   1.120860
    20  O    6.963320   6.652350   3.205470   2.831784   2.422635
    21  N    7.375026   7.523020   4.367210   3.784723   2.555834
    22  H    5.105750   5.852342   2.982682   3.471370   2.169140
    23  H    7.810446   7.973715   4.103138   2.163577   3.457164
    24  H    8.235691   8.647117   4.631697   2.173910   2.903178
    25  H    6.755015   7.434244   4.244330   3.486992   3.924143
    26  H    4.728502   5.728458   3.260462   3.939405   3.493268
    27  C    6.937257   7.398093   4.695844   4.534068   3.052118
    28  H    6.392558   6.829782   4.747087   5.207737   3.727624
    29  H    7.906751   8.439842   5.764326   5.297310   3.868936
    30  H    6.474701   7.126775   4.293163   4.113975   2.598582
    31  C    8.113594   8.040309   5.301352   4.935941   3.898284
    32  H    8.784445   8.556902   5.597402   4.892852   4.154854
    33  H    8.819442   8.865521   6.254830   5.779954   4.655344
    34  H    7.579923   7.379974   5.154988   5.382261   4.336559
                   16         17         18         19         20
    16  H    0.000000
    17  H    1.762250   0.000000
    18  C    2.809587   2.709168   0.000000
    19  H    3.081688   2.509948   2.159799   0.000000
    20  O    2.711030   2.843332   1.219612   3.227313   0.000000
    21  N    4.230152   3.840575   1.445252   2.641141   2.287760
    22  H    3.868525   4.310864   2.873712   2.372378   3.864044
    23  H    2.412524   2.579277   4.674753   3.739714   4.919417
    24  H    3.076794   2.419430   4.235680   2.633637   4.847129
    25  H    3.842646   4.335754   5.421160   4.000549   6.030908
    26  H    4.166632   4.998047   4.745047   3.730956   5.499797
    27  C    5.051419   4.832249   2.511667   2.906056   3.527157
    28  H    5.545734   5.604429   3.054595   3.805930   3.863289
    29  H    5.933568   5.460532   3.365673   3.457452   4.365880
    30  H    4.711653   4.590991   2.657547   2.334130   3.813656
    31  C    5.207234   4.818544   2.496431   4.077246   2.703550
    32  H    5.115642   4.555681   2.718211   4.375570   2.571241
    33  H    6.169335   5.626086   3.404064   4.613509   3.769065
    34  H    5.459039   5.400997   2.890393   4.718076   2.861081
                   21         22         23         24         25
    21  N    0.000000
    22  H    3.207741   0.000000
    23  H    5.888719   4.874863   0.000000
    24  H    5.121326   4.266153   1.768476   0.000000
    25  H    6.402527   4.171580   2.456962   2.597183   0.000000
    26  H    5.486833   2.468177   4.179792   4.032236   2.447231
    27  C    1.480746   2.649729   6.467340   5.536300   6.421806
    28  H    2.153550   2.916682   7.155086   6.391735   6.987386
    29  H    2.105458   3.522022   7.169747   6.036876   7.107125
    30  H    2.149103   1.751971   5.837624   4.855087   5.490670
    31  C    1.482110   4.538135   7.087746   6.437378   7.806560
    32  H    2.122847   5.232782   7.004518   6.449552   8.057375
    33  H    2.109659   5.078846   7.893567   7.055306   8.490417
    34  H    2.162706   4.703546   7.541135   7.076152   8.175120
                   26         27         28         29         30
    26  H    0.000000
    27  C    5.094808   0.000000
    28  H    5.354168   1.100583   0.000000
    29  H    5.884550   1.098110   1.781645   0.000000
    30  H    4.110664   1.102044   1.778897   1.781533   0.000000
    31  C    6.853943   2.459276   2.682145   2.765181   3.422489
    32  H    7.394611   3.395561   3.740114   3.666142   4.250774
    33  H    7.481801   2.608524   2.828142   2.469433   3.670107
    34  H    6.999549   2.856384   2.648810   3.339839   3.806539
                   31         32         33         34
    31  C    0.000000
    32  H    1.097714   0.000000
    33  H    1.097965   1.779027   0.000000
    34  H    1.099863   1.782273   1.783845   0.000000
 Symmetry turned off by external request.
 Stoichiometry    C11H18N2O3
 Framework group  C1[X(C11H18N2O3)]
 Deg. of freedom    96
 Full point group                 C1
 Rotational constants (GHZ):      0.5729841      0.4030657      0.2889624
 Standard basis: VSTO-3G (5D, 7F)
 Integral buffers will be    131072 words long.
 Raffenetti 1 integral format.
 Two-electron integral symmetry is turned off.
    82 basis functions,   246 primitive gaussians,    82 cartesian basis functions
    45 alpha electrons       45 beta electrons
       nuclear repulsion energy       631.8821364796 Hartrees.
 NAtoms=   34 NActive=   34 NUniq=   34 SFac= 7.50D-01 NAtFMM=   80 NAOKFM=F Big=F
 Simple Huckel Guess.
 RHF-PM3 calculation of energy, first and second derivatives.
 MO and density RWFs will be updated without deorthogonalization.
 Numerical evaluation of force-constants.
 Step-Size= 0.018897 bohr.
 Closed-shell calculation:      45 occupied levels.
 NNHCO=    0.
 References:
  H: (PM3): J. J. P. STEWART, J. COMP. CHEM.     10, 209 (1989).
  C: (PM3): J. J. P. STEWART, J. COMP. CHEM.     10, 209 (1989).
  N: (PM3): J. J. P. STEWART, J. COMP. CHEM.     10, 209 (1989).
  O: (PM3): J. J. P. STEWART, J. COMP. CHEM.     10, 209 (1989).
 Ext34=T Pulay=F Camp-King=F BShift= 0.00D+00
 It=  1 PL= 0.103D+01 DiagD=T ESCF=     18.165527 Diff= 0.138D+02 RMSDP= 0.164D+00.
 It=  2 PL= 0.905D-01 DiagD=T ESCF=     -3.321151 Diff=-0.215D+02 RMSDP= 0.579D-02.
 It=  3 PL= 0.441D-01 DiagD=F ESCF=     -4.923035 Diff=-0.160D+01 RMSDP= 0.350D-02.
 It=  4 PL= 0.910D-02 DiagD=F ESCF=     -5.319058 Diff=-0.396D+00 RMSDP= 0.574D-03.
 It=  5 PL= 0.425D-02 DiagD=F ESCF=     -5.202222 Diff= 0.117D+00 RMSDP= 0.303D-03.
 It=  6 PL= 0.234D-02 DiagD=F ESCF=     -5.205349 Diff=-0.313D-02 RMSDP= 0.410D-03.
 It=  7 PL= 0.338D-03 DiagD=F ESCF=     -5.208958 Diff=-0.361D-02 RMSDP= 0.203D-04.
 It=  8 PL= 0.118D-03 DiagD=F ESCF=     -5.206888 Diff= 0.207D-02 RMSDP= 0.885D-05.
 It=  9 PL= 0.598D-04 DiagD=F ESCF=     -5.206891 Diff=-0.321D-05 RMSDP= 0.915D-05.
 It= 10 PL= 0.724D-05 DiagD=F ESCF=     -5.206893 Diff=-0.225D-05 RMSDP= 0.921D-06.
 It= 11 PL= 0.505D-05 DiagD=F ESCF=     -5.206892 Diff= 0.106D-05 RMSDP= 0.516D-06.
 It= 12 PL= 0.310D-05 DiagD=F ESCF=     -5.206892 Diff=-0.922D-08 RMSDP= 0.782D-06.
 It= 13 PL= 0.884D-06 DiagD=F ESCF=     -5.206892 Diff=-0.134D-07 RMSDP= 0.435D-07.
 SE2nd ... symmetry will not be used.
 SE2nd: IAtom=  1 IXYZ=1 IS=1.
 SE2nd: IAtom=  1 IXYZ=1 IS=2.
 SE2nd: IAtom=  1 IXYZ=2 IS=1.
 SE2nd: IAtom=  1 IXYZ=2 IS=2.
 SE2nd: IAtom=  1 IXYZ=3 IS=1.
 SE2nd: IAtom=  1 IXYZ=3 IS=2.
 SE2nd: IAtom=  2 IXYZ=1 IS=1.
 SE2nd: IAtom=  2 IXYZ=1 IS=2.
 SE2nd: IAtom=  2 IXYZ=2 IS=1.
 SE2nd: IAtom=  2 IXYZ=2 IS=2.
 SE2nd: IAtom=  2 IXYZ=3 IS=1.
 SE2nd: IAtom=  2 IXYZ=3 IS=2.
 SE2nd: IAtom=  3 IXYZ=1 IS=1.
 SE2nd: IAtom=  3 IXYZ=1 IS=2.
 SE2nd: IAtom=  3 IXYZ=2 IS=1.
 SE2nd: IAtom=  3 IXYZ=2 IS=2.
 SE2nd: IAtom=  3 IXYZ=3 IS=1.
 SE2nd: IAtom=  3 IXYZ=3 IS=2.
 SE2nd: IAtom=  4 IXYZ=1 IS=1.
 SE2nd: IAtom=  4 IXYZ=1 IS=2.
 SE2nd: IAtom=  4 IXYZ=2 IS=1.
 SE2nd: IAtom=  4 IXYZ=2 IS=2.
 SE2nd: IAtom=  4 IXYZ=3 IS=1.
 SE2nd: IAtom=  4 IXYZ=3 IS=2.
 SE2nd: IAtom=  5 IXYZ=1 IS=1.
 SE2nd: IAtom=  5 IXYZ=1 IS=2.
 SE2nd: IAtom=  5 IXYZ=2 IS=1.
 SE2nd: IAtom=  5 IXYZ=2 IS=2.
 SE2nd: IAtom=  5 IXYZ=3 IS=1.
 SE2nd: IAtom=  5 IXYZ=3 IS=2.
 SE2nd: IAtom=  6 IXYZ=1 IS=1.
 SE2nd: IAtom=  6 IXYZ=1 IS=2.
 SE2nd: IAtom=  6 IXYZ=2 IS=1.
 SE2nd: IAtom=  6 IXYZ=2 IS=2.
 SE2nd: IAtom=  6 IXYZ=3 IS=1.
 SE2nd: IAtom=  6 IXYZ=3 IS=2.
 SE2nd: IAtom=  7 IXYZ=1 IS=1.
 SE2nd: IAtom=  7 IXYZ=1 IS=2.
 SE2nd: IAtom=  7 IXYZ=2 IS=1.
 SE2nd: IAtom=  7 IXYZ=2 IS=2.
 SE2nd: IAtom=  7 IXYZ=3 IS=1.
 SE2nd: IAtom=  7 IXYZ=3 IS=2.
 SE2nd: IAtom=  8 IXYZ=1 IS=1.
 SE2nd: IAtom=  8 IXYZ=1 IS=2.
 SE2nd: IAtom=  8 IXYZ=2 IS=1.
 SE2nd: IAtom=  8 IXYZ=2 IS=2.
 SE2nd: IAtom=  8 IXYZ=3 IS=1.
 SE2nd: IAtom=  8 IXYZ=3 IS=2.
 SE2nd: IAtom=  9 IXYZ=1 IS=1.
 SE2nd: IAtom=  9 IXYZ=1 IS=2.
 SE2nd: IAtom=  9 IXYZ=2 IS=1.
 SE2nd: IAtom=  9 IXYZ=2 IS=2.
 SE2nd: IAtom=  9 IXYZ=3 IS=1.
 SE2nd: IAtom=  9 IXYZ=3 IS=2.
 SE2nd: IAtom= 10 IXYZ=1 IS=1.
 SE2nd: IAtom= 10 IXYZ=1 IS=2.
 SE2nd: IAtom= 10 IXYZ=2 IS=1.
 SE2nd: IAtom= 10 IXYZ=2 IS=2.
 SE2nd: IAtom= 10 IXYZ=3 IS=1.
 SE2nd: IAtom= 10 IXYZ=3 IS=2.
 SE2nd: IAtom= 11 IXYZ=1 IS=1.
 SE2nd: IAtom= 11 IXYZ=1 IS=2.
 SE2nd: IAtom= 11 IXYZ=2 IS=1.
 SE2nd: IAtom= 11 IXYZ=2 IS=2.
 SE2nd: IAtom= 11 IXYZ=3 IS=1.
 SE2nd: IAtom= 11 IXYZ=3 IS=2.
 SE2nd: IAtom= 12 IXYZ=1 IS=1.
 SE2nd: IAtom= 12 IXYZ=1 IS=2.
 SE2nd: IAtom= 12 IXYZ=2 IS=1.
 SE2nd: IAtom= 12 IXYZ=2 IS=2.
 SE2nd: IAtom= 12 IXYZ=3 IS=1.
 SE2nd: IAtom= 12 IXYZ=3 IS=2.
 SE2nd: IAtom= 13 IXYZ=1 IS=1.
 SE2nd: IAtom= 13 IXYZ=1 IS=2.
 SE2nd: IAtom= 13 IXYZ=2 IS=1.
 SE2nd: IAtom= 13 IXYZ=2 IS=2.
 SE2nd: IAtom= 13 IXYZ=3 IS=1.
 SE2nd: IAtom= 13 IXYZ=3 IS=2.
 SE2nd: IAtom= 14 IXYZ=1 IS=1.
 SE2nd: IAtom= 14 IXYZ=1 IS=2.
 SE2nd: IAtom= 14 IXYZ=2 IS=1.
 SE2nd: IAtom= 14 IXYZ=2 IS=2.
 SE2nd: IAtom= 14 IXYZ=3 IS=1.
 SE2nd: IAtom= 14 IXYZ=3 IS=2.
 SE2nd: IAtom= 15 IXYZ=1 IS=1.
 SE2nd: IAtom= 15 IXYZ=1 IS=2.
 SE2nd: IAtom= 15 IXYZ=2 IS=1.
 SE2nd: IAtom= 15 IXYZ=2 IS=2.
 SE2nd: IAtom= 15 IXYZ=3 IS=1.
 SE2nd: IAtom= 15 IXYZ=3 IS=2.
 SE2nd: IAtom= 16 IXYZ=1 IS=1.
 SE2nd: IAtom= 16 IXYZ=1 IS=2.
 SE2nd: IAtom= 16 IXYZ=2 IS=1.
 SE2nd: IAtom= 16 IXYZ=2 IS=2.
 SE2nd: IAtom= 16 IXYZ=3 IS=1.
 SE2nd: IAtom= 16 IXYZ=3 IS=2.
 SE2nd: IAtom= 17 IXYZ=1 IS=1.
 SE2nd: IAtom= 17 IXYZ=1 IS=2.
 SE2nd: IAtom= 17 IXYZ=2 IS=1.
 SE2nd: IAtom= 17 IXYZ=2 IS=2.
 SE2nd: IAtom= 17 IXYZ=3 IS=1.
 SE2nd: IAtom= 17 IXYZ=3 IS=2.
 SE2nd: IAtom= 18 IXYZ=1 IS=1.
 SE2nd: IAtom= 18 IXYZ=1 IS=2.
 SE2nd: IAtom= 18 IXYZ=2 IS=1.
 SE2nd: IAtom= 18 IXYZ=2 IS=2.
 SE2nd: IAtom= 18 IXYZ=3 IS=1.
 SE2nd: IAtom= 18 IXYZ=3 IS=2.
 SE2nd: IAtom= 19 IXYZ=1 IS=1.
 SE2nd: IAtom= 19 IXYZ=1 IS=2.
 SE2nd: IAtom= 19 IXYZ=2 IS=1.
 SE2nd: IAtom= 19 IXYZ=2 IS=2.
 SE2nd: IAtom= 19 IXYZ=3 IS=1.
 SE2nd: IAtom= 19 IXYZ=3 IS=2.
 SE2nd: IAtom= 20 IXYZ=1 IS=1.
 SE2nd: IAtom= 20 IXYZ=1 IS=2.
 SE2nd: IAtom= 20 IXYZ=2 IS=1.
 SE2nd: IAtom= 20 IXYZ=2 IS=2.
 SE2nd: IAtom= 20 IXYZ=3 IS=1.
 SE2nd: IAtom= 20 IXYZ=3 IS=2.
 SE2nd: IAtom= 21 IXYZ=1 IS=1.
 SE2nd: IAtom= 21 IXYZ=1 IS=2.
 SE2nd: IAtom= 21 IXYZ=2 IS=1.
 SE2nd: IAtom= 21 IXYZ=2 IS=2.
 SE2nd: IAtom= 21 IXYZ=3 IS=1.
 SE2nd: IAtom= 21 IXYZ=3 IS=2.
 SE2nd: IAtom= 22 IXYZ=1 IS=1.
 SE2nd: IAtom= 22 IXYZ=1 IS=2.
 SE2nd: IAtom= 22 IXYZ=2 IS=1.
 SE2nd: IAtom= 22 IXYZ=2 IS=2.
 SE2nd: IAtom= 22 IXYZ=3 IS=1.
 SE2nd: IAtom= 22 IXYZ=3 IS=2.
 SE2nd: IAtom= 23 IXYZ=1 IS=1.
 SE2nd: IAtom= 23 IXYZ=1 IS=2.
 SE2nd: IAtom= 23 IXYZ=2 IS=1.
 SE2nd: IAtom= 23 IXYZ=2 IS=2.
 SE2nd: IAtom= 23 IXYZ=3 IS=1.
 SE2nd: IAtom= 23 IXYZ=3 IS=2.
 SE2nd: IAtom= 24 IXYZ=1 IS=1.
 SE2nd: IAtom= 24 IXYZ=1 IS=2.
 SE2nd: IAtom= 24 IXYZ=2 IS=1.
 SE2nd: IAtom= 24 IXYZ=2 IS=2.
 SE2nd: IAtom= 24 IXYZ=3 IS=1.
 SE2nd: IAtom= 24 IXYZ=3 IS=2.
 SE2nd: IAtom= 25 IXYZ=1 IS=1.
 SE2nd: IAtom= 25 IXYZ=1 IS=2.
 SE2nd: IAtom= 25 IXYZ=2 IS=1.
 SE2nd: IAtom= 25 IXYZ=2 IS=2.
 SE2nd: IAtom= 25 IXYZ=3 IS=1.
 SE2nd: IAtom= 25 IXYZ=3 IS=2.
 SE2nd: IAtom= 26 IXYZ=1 IS=1.
 SE2nd: IAtom= 26 IXYZ=1 IS=2.
 SE2nd: IAtom= 26 IXYZ=2 IS=1.
 SE2nd: IAtom= 26 IXYZ=2 IS=2.
 SE2nd: IAtom= 26 IXYZ=3 IS=1.
 SE2nd: IAtom= 26 IXYZ=3 IS=2.
 SE2nd: IAtom= 27 IXYZ=1 IS=1.
 SE2nd: IAtom= 27 IXYZ=1 IS=2.
 SE2nd: IAtom= 27 IXYZ=2 IS=1.
 SE2nd: IAtom= 27 IXYZ=2 IS=2.
 SE2nd: IAtom= 27 IXYZ=3 IS=1.
 SE2nd: IAtom= 27 IXYZ=3 IS=2.
 SE2nd: IAtom= 28 IXYZ=1 IS=1.
 SE2nd: IAtom= 28 IXYZ=1 IS=2.
 SE2nd: IAtom= 28 IXYZ=2 IS=1.
 SE2nd: IAtom= 28 IXYZ=2 IS=2.
 SE2nd: IAtom= 28 IXYZ=3 IS=1.
 SE2nd: IAtom= 28 IXYZ=3 IS=2.
 SE2nd: IAtom= 29 IXYZ=1 IS=1.
 SE2nd: IAtom= 29 IXYZ=1 IS=2.
 SE2nd: IAtom= 29 IXYZ=2 IS=1.
 SE2nd: IAtom= 29 IXYZ=2 IS=2.
 SE2nd: IAtom= 29 IXYZ=3 IS=1.
 SE2nd: IAtom= 29 IXYZ=3 IS=2.
 SE2nd: IAtom= 30 IXYZ=1 IS=1.
 SE2nd: IAtom= 30 IXYZ=1 IS=2.
 SE2nd: IAtom= 30 IXYZ=2 IS=1.
 SE2nd: IAtom= 30 IXYZ=2 IS=2.
 SE2nd: IAtom= 30 IXYZ=3 IS=1.
 SE2nd: IAtom= 30 IXYZ=3 IS=2.
 SE2nd: IAtom= 31 IXYZ=1 IS=1.
 SE2nd: IAtom= 31 IXYZ=1 IS=2.
 SE2nd: IAtom= 31 IXYZ=2 IS=1.
 SE2nd: IAtom= 31 IXYZ=2 IS=2.
 SE2nd: IAtom= 31 IXYZ=3 IS=1.
 SE2nd: IAtom= 31 IXYZ=3 IS=2.
 SE2nd: IAtom= 32 IXYZ=1 IS=1.
 SE2nd: IAtom= 32 IXYZ=1 IS=2.
 SE2nd: IAtom= 32 IXYZ=2 IS=1.
 SE2nd: IAtom= 32 IXYZ=2 IS=2.
 SE2nd: IAtom= 32 IXYZ=3 IS=1.
 SE2nd: IAtom= 32 IXYZ=3 IS=2.
 SE2nd: IAtom= 33 IXYZ=1 IS=1.
 SE2nd: IAtom= 33 IXYZ=1 IS=2.
 SE2nd: IAtom= 33 IXYZ=2 IS=1.
 SE2nd: IAtom= 33 IXYZ=2 IS=2.
 SE2nd: IAtom= 33 IXYZ=3 IS=1.
 SE2nd: IAtom= 33 IXYZ=3 IS=2.
 SE2nd: IAtom= 34 IXYZ=1 IS=1.
 SE2nd: IAtom= 34 IXYZ=1 IS=2.
 SE2nd: IAtom= 34 IXYZ=2 IS=1.
 SE2nd: IAtom= 34 IXYZ=2 IS=2.
 SE2nd: IAtom= 34 IXYZ=3 IS=1.
 SE2nd: IAtom= 34 IXYZ=3 IS=2.
 Maximum difference in off-diagonal FC elements:
 I= 60 J= 52 Difference=    2.0639906768D-04
 Max difference between analytic and numerical forces:
 I= 60 Difference=    1.4642741161D-04
 Energy=   -0.191353504081 NIter=  14.
 Dipole moment=      -0.540974       0.432947      -0.347902

 **********************************************************************

            Population analysis using the SCF density.

 **********************************************************************

 Alpha  occ. eigenvalues --   -1.53947  -1.45238  -1.37470  -1.31577  -1.26174
 Alpha  occ. eigenvalues --   -1.19063  -1.12980  -1.06032  -1.00657  -0.97389
 Alpha  occ. eigenvalues --   -0.89722  -0.83328  -0.79817  -0.76706  -0.70917
 Alpha  occ. eigenvalues --   -0.68801  -0.67056  -0.64718  -0.63530  -0.62933
 Alpha  occ. eigenvalues --   -0.61811  -0.60082  -0.58530  -0.57456  -0.57018
 Alpha  occ. eigenvalues --   -0.55959  -0.54766  -0.53726  -0.52104  -0.51760
 Alpha  occ. eigenvalues --   -0.51261  -0.50045  -0.49558  -0.48831  -0.48699
 Alpha  occ. eigenvalues --   -0.47553  -0.46623  -0.44833  -0.44025  -0.42523
 Alpha  occ. eigenvalues --   -0.41902  -0.39919  -0.38221  -0.36730  -0.34852
 Alpha virt. eigenvalues --    0.01548   0.03375   0.04364   0.04966   0.05919
 Alpha virt. eigenvalues --    0.10080   0.10612   0.10920   0.11438   0.11611
 Alpha virt. eigenvalues --    0.12285   0.12585   0.12983   0.13237   0.13376
 Alpha virt. eigenvalues --    0.13728   0.13901   0.14404   0.14511   0.14722
 Alpha virt. eigenvalues --    0.14802   0.15018   0.15270   0.15532   0.15620
 Alpha virt. eigenvalues --    0.16155   0.16429   0.16867   0.17010   0.17516
 Alpha virt. eigenvalues --    0.18754   0.19111   0.19865   0.20959   0.21045
 Alpha virt. eigenvalues --    0.26140   0.26873
          Condensed to atoms (all electrons):
              1          2          3          4          5          6
     1  C    4.070844   0.000000   0.000000   0.000000   0.000000   0.000000
     2  C    0.000000   4.103522   0.000000   0.000000   0.000000   0.000000
     3  C    0.000000   0.000000   4.203804   0.000000   0.000000   0.000000
     4  C    0.000000   0.000000   0.000000   4.019859   0.000000   0.000000
     5  N    0.000000   0.000000   0.000000   0.000000   5.005695   0.000000
     6  C    0.000000   0.000000   0.000000   0.000000   0.000000   3.654932
     7  O    0.000000   0.000000   0.000000   0.000000   0.000000   0.000000
     8  O    0.000000   0.000000   0.000000   0.000000   0.000000   0.000000
     9  C    0.000000   0.000000   0.000000   0.000000   0.000000   0.000000
    10  H    0.000000   0.000000   0.000000   0.000000   0.000000   0.000000
    11  H    0.000000   0.000000   0.000000   0.000000   0.000000   0.000000
    12  H    0.000000   0.000000   0.000000   0.000000   0.000000   0.000000
    13  H    0.000000   0.000000   0.000000   0.000000   0.000000   0.000000
    14  C    0.000000   0.000000   0.000000   0.000000   0.000000   0.000000
    15  C    0.000000   0.000000   0.000000   0.000000   0.000000   0.000000
    16  H    0.000000   0.000000   0.000000   0.000000   0.000000   0.000000
    17  H    0.000000   0.000000   0.000000   0.000000   0.000000   0.000000
    18  C    0.000000   0.000000   0.000000   0.000000   0.000000   0.000000
    19  H    0.000000   0.000000   0.000000   0.000000   0.000000   0.000000
    20  O    0.000000   0.000000   0.000000   0.000000   0.000000   0.000000
    21  N    0.000000   0.000000   0.000000   0.000000   0.000000   0.000000
    22  H    0.000000   0.000000   0.000000   0.000000   0.000000   0.000000
    23  H    0.000000   0.000000   0.000000   0.000000   0.000000   0.000000
    24  H    0.000000   0.000000   0.000000   0.000000   0.000000   0.000000
    25  H    0.000000   0.000000   0.000000   0.000000   0.000000   0.000000
    26  H    0.000000   0.000000   0.000000   0.000000   0.000000   0.000000
    27  C    0.000000   0.000000   0.000000   0.000000   0.000000   0.000000
    28  H    0.000000   0.000000   0.000000   0.000000   0.000000   0.000000
    29  H    0.000000   0.000000   0.000000   0.000000   0.000000   0.000000
    30  H    0.000000   0.000000   0.000000   0.000000   0.000000   0.000000
    31  C    0.000000   0.000000   0.000000   0.000000   0.000000   0.000000
    32  H    0.000000   0.000000   0.000000   0.000000   0.000000   0.000000
    33  H    0.000000   0.000000   0.000000   0.000000   0.000000   0.000000
    34  H    0.000000   0.000000   0.000000   0.000000   0.000000   0.000000
              7          8          9         10         11         12
     1  C    0.000000   0.000000   0.000000   0.000000   0.000000   0.000000
     2  C    0.000000   0.000000   0.000000   0.000000   0.000000   0.000000
     3  C    0.000000   0.000000   0.000000   0.000000   0.000000   0.000000
     4  C    0.000000   0.000000   0.000000   0.000000   0.000000   0.000000
     5  N    0.000000   0.000000   0.000000   0.000000   0.000000   0.000000
     6  C    0.000000   0.000000   0.000000   0.000000   0.000000   0.000000
     7  O    6.416219   0.000000   0.000000   0.000000   0.000000   0.000000
     8  O    0.000000   6.265001   0.000000   0.000000   0.000000   0.000000
     9  C    0.000000   0.000000   3.915294   0.000000   0.000000   0.000000
    10  H    0.000000   0.000000   0.000000   0.962897   0.000000   0.000000
    11  H    0.000000   0.000000   0.000000   0.000000   0.964663   0.000000
    12  H    0.000000   0.000000   0.000000   0.000000   0.000000   0.954884
    13  H    0.000000   0.000000   0.000000   0.000000   0.000000   0.000000
    14  C    0.000000   0.000000   0.000000   0.000000   0.000000   0.000000
    15  C    0.000000   0.000000   0.000000   0.000000   0.000000   0.000000
    16  H    0.000000   0.000000   0.000000   0.000000   0.000000   0.000000
    17  H    0.000000   0.000000   0.000000   0.000000   0.000000   0.000000
    18  C    0.000000   0.000000   0.000000   0.000000   0.000000   0.000000
    19  H    0.000000   0.000000   0.000000   0.000000   0.000000   0.000000
    20  O    0.000000   0.000000   0.000000   0.000000   0.000000   0.000000
    21  N    0.000000   0.000000   0.000000   0.000000   0.000000   0.000000
    22  H    0.000000   0.000000   0.000000   0.000000   0.000000   0.000000
    23  H    0.000000   0.000000   0.000000   0.000000   0.000000   0.000000
    24  H    0.000000   0.000000   0.000000   0.000000   0.000000   0.000000
    25  H    0.000000   0.000000   0.000000   0.000000   0.000000   0.000000
    26  H    0.000000   0.000000   0.000000   0.000000   0.000000   0.000000
    27  C    0.000000   0.000000   0.000000   0.000000   0.000000   0.000000
    28  H    0.000000   0.000000   0.000000   0.000000   0.000000   0.000000
    29  H    0.000000   0.000000   0.000000   0.000000   0.000000   0.000000
    30  H    0.000000   0.000000   0.000000   0.000000   0.000000   0.000000
    31  C    0.000000   0.000000   0.000000   0.000000   0.000000   0.000000
    32  H    0.000000   0.000000   0.000000   0.000000   0.000000   0.000000
    33  H    0.000000   0.000000   0.000000   0.000000   0.000000   0.000000
    34  H    0.000000   0.000000   0.000000   0.000000   0.000000   0.000000
             13         14         15         16         17         18
     1  C    0.000000   0.000000   0.000000   0.000000   0.000000   0.000000
     2  C    0.000000   0.000000   0.000000   0.000000   0.000000   0.000000
     3  C    0.000000   0.000000   0.000000   0.000000   0.000000   0.000000
     4  C    0.000000   0.000000   0.000000   0.000000   0.000000   0.000000
     5  N    0.000000   0.000000   0.000000   0.000000   0.000000   0.000000
     6  C    0.000000   0.000000   0.000000   0.000000   0.000000   0.000000
     7  O    0.000000   0.000000   0.000000   0.000000   0.000000   0.000000
     8  O    0.000000   0.000000   0.000000   0.000000   0.000000   0.000000
     9  C    0.000000   0.000000   0.000000   0.000000   0.000000   0.000000
    10  H    0.000000   0.000000   0.000000   0.000000   0.000000   0.000000
    11  H    0.000000   0.000000   0.000000   0.000000   0.000000   0.000000
    12  H    0.000000   0.000000   0.000000   0.000000   0.000000   0.000000
    13  H    0.907679   0.000000   0.000000   0.000000   0.000000   0.000000
    14  C    0.000000   4.095223   0.000000   0.000000   0.000000   0.000000
    15  C    0.000000   0.000000   4.100239   0.000000   0.000000   0.000000
    16  H    0.000000   0.000000   0.000000   0.930155   0.000000   0.000000
    17  H    0.000000   0.000000   0.000000   0.000000   0.933829   0.000000
    18  C    0.000000   0.000000   0.000000   0.000000   0.000000   3.733268
    19  H    0.000000   0.000000   0.000000   0.000000   0.000000   0.000000
    20  O    0.000000   0.000000   0.000000   0.000000   0.000000   0.000000
    21  N    0.000000   0.000000   0.000000   0.000000   0.000000   0.000000
    22  H    0.000000   0.000000   0.000000   0.000000   0.000000   0.000000
    23  H    0.000000   0.000000   0.000000   0.000000   0.000000   0.000000
    24  H    0.000000   0.000000   0.000000   0.000000   0.000000   0.000000
    25  H    0.000000   0.000000   0.000000   0.000000   0.000000   0.000000
    26  H    0.000000   0.000000   0.000000   0.000000   0.000000   0.000000
    27  C    0.000000   0.000000   0.000000   0.000000   0.000000   0.000000
    28  H    0.000000   0.000000   0.000000   0.000000   0.000000   0.000000
    29  H    0.000000   0.000000   0.000000   0.000000   0.000000   0.000000
    30  H    0.000000   0.000000   0.000000   0.000000   0.000000   0.000000
    31  C    0.000000   0.000000   0.000000   0.000000   0.000000   0.000000
    32  H    0.000000   0.000000   0.000000   0.000000   0.000000   0.000000
    33  H    0.000000   0.000000   0.000000   0.000000   0.000000   0.000000
    34  H    0.000000   0.000000   0.000000   0.000000   0.000000   0.000000
             19         20         21         22         23         24
     1  C    0.000000   0.000000   0.000000   0.000000   0.000000   0.000000
     2  C    0.000000   0.000000   0.000000   0.000000   0.000000   0.000000
     3  C    0.000000   0.000000   0.000000   0.000000   0.000000   0.000000
     4  C    0.000000   0.000000   0.000000   0.000000   0.000000   0.000000
     5  N    0.000000   0.000000   0.000000   0.000000   0.000000   0.000000
     6  C    0.000000   0.000000   0.000000   0.000000   0.000000   0.000000
     7  O    0.000000   0.000000   0.000000   0.000000   0.000000   0.000000
     8  O    0.000000   0.000000   0.000000   0.000000   0.000000   0.000000
     9  C    0.000000   0.000000   0.000000   0.000000   0.000000   0.000000
    10  H    0.000000   0.000000   0.000000   0.000000   0.000000   0.000000
    11  H    0.000000   0.000000   0.000000   0.000000   0.000000   0.000000
    12  H    0.000000   0.000000   0.000000   0.000000   0.000000   0.000000
    13  H    0.000000   0.000000   0.000000   0.000000   0.000000   0.000000
    14  C    0.000000   0.000000   0.000000   0.000000   0.000000   0.000000
    15  C    0.000000   0.000000   0.000000   0.000000   0.000000   0.000000
    16  H    0.000000   0.000000   0.000000   0.000000   0.000000   0.000000
    17  H    0.000000   0.000000   0.000000   0.000000   0.000000   0.000000
    18  C    0.000000   0.000000   0.000000   0.000000   0.000000   0.000000
    19  H    0.910271   0.000000   0.000000   0.000000   0.000000   0.000000
    20  O    0.000000   6.351627   0.000000   0.000000   0.000000   0.000000
    21  N    0.000000   0.000000   5.073443   0.000000   0.000000   0.000000
    22  H    0.000000   0.000000   0.000000   0.896779   0.000000   0.000000
    23  H    0.000000   0.000000   0.000000   0.000000   0.936765   0.000000
    24  H    0.000000   0.000000   0.000000   0.000000   0.000000   0.937719
    25  H    0.000000   0.000000   0.000000   0.000000   0.000000   0.000000
    26  H    0.000000   0.000000   0.000000   0.000000   0.000000   0.000000
    27  C    0.000000   0.000000   0.000000   0.000000   0.000000   0.000000
    28  H    0.000000   0.000000   0.000000   0.000000   0.000000   0.000000
    29  H    0.000000   0.000000   0.000000   0.000000   0.000000   0.000000
    30  H    0.000000   0.000000   0.000000   0.000000   0.000000   0.000000
    31  C    0.000000   0.000000   0.000000   0.000000   0.000000   0.000000
    32  H    0.000000   0.000000   0.000000   0.000000   0.000000   0.000000
    33  H    0.000000   0.000000   0.000000   0.000000   0.000000   0.000000
    34  H    0.000000   0.000000   0.000000   0.000000   0.000000   0.000000
             25         26         27         28         29         30
     1  C    0.000000   0.000000   0.000000   0.000000   0.000000   0.000000
     2  C    0.000000   0.000000   0.000000   0.000000   0.000000   0.000000
     3  C    0.000000   0.000000   0.000000   0.000000   0.000000   0.000000
     4  C    0.000000   0.000000   0.000000   0.000000   0.000000   0.000000
     5  N    0.000000   0.000000   0.000000   0.000000   0.000000   0.000000
     6  C    0.000000   0.000000   0.000000   0.000000   0.000000   0.000000
     7  O    0.000000   0.000000   0.000000   0.000000   0.000000   0.000000
     8  O    0.000000   0.000000   0.000000   0.000000   0.000000   0.000000
     9  C    0.000000   0.000000   0.000000   0.000000   0.000000   0.000000
    10  H    0.000000   0.000000   0.000000   0.000000   0.000000   0.000000
    11  H    0.000000   0.000000   0.000000   0.000000   0.000000   0.000000
    12  H    0.000000   0.000000   0.000000   0.000000   0.000000   0.000000
    13  H    0.000000   0.000000   0.000000   0.000000   0.000000   0.000000
    14  C    0.000000   0.000000   0.000000   0.000000   0.000000   0.000000
    15  C    0.000000   0.000000   0.000000   0.000000   0.000000   0.000000
    16  H    0.000000   0.000000   0.000000   0.000000   0.000000   0.000000
    17  H    0.000000   0.000000   0.000000   0.000000   0.000000   0.000000
    18  C    0.000000   0.000000   0.000000   0.000000   0.000000   0.000000
    19  H    0.000000   0.000000   0.000000   0.000000   0.000000   0.000000
    20  O    0.000000   0.000000   0.000000   0.000000   0.000000   0.000000
    21  N    0.000000   0.000000   0.000000   0.000000   0.000000   0.000000
    22  H    0.000000   0.000000   0.000000   0.000000   0.000000   0.000000
    23  H    0.000000   0.000000   0.000000   0.000000   0.000000   0.000000
    24  H    0.000000   0.000000   0.000000   0.000000   0.000000   0.000000
    25  H    0.899511   0.000000   0.000000   0.000000   0.000000   0.000000
    26  H    0.000000   0.884661   0.000000   0.000000   0.000000   0.000000
    27  C    0.000000   0.000000   4.090196   0.000000   0.000000   0.000000
    28  H    0.000000   0.000000   0.000000   0.957226   0.000000   0.000000
    29  H    0.000000   0.000000   0.000000   0.000000   0.950876   0.000000
    30  H    0.000000   0.000000   0.000000   0.000000   0.000000   0.942080
    31  C    0.000000   0.000000   0.000000   0.000000   0.000000   0.000000
    32  H    0.000000   0.000000   0.000000   0.000000   0.000000   0.000000
    33  H    0.000000   0.000000   0.000000   0.000000   0.000000   0.000000
    34  H    0.000000   0.000000   0.000000   0.000000   0.000000   0.000000
             31         32         33         34
     1  C    0.000000   0.000000   0.000000   0.000000
     2  C    0.000000   0.000000   0.000000   0.000000
     3  C    0.000000   0.000000   0.000000   0.000000
     4  C    0.000000   0.000000   0.000000   0.000000
     5  N    0.000000   0.000000   0.000000   0.000000
     6  C    0.000000   0.000000   0.000000   0.000000
     7  O    0.000000   0.000000   0.000000   0.000000
     8  O    0.000000   0.000000   0.000000   0.000000
     9  C    0.000000   0.000000   0.000000   0.000000
    10  H    0.000000   0.000000   0.000000   0.000000
    11  H    0.000000   0.000000   0.000000   0.000000
    12  H    0.000000   0.000000   0.000000   0.000000
    13  H    0.000000   0.000000   0.000000   0.000000
    14  C    0.000000   0.000000   0.000000   0.000000
    15  C    0.000000   0.000000   0.000000   0.000000
    16  H    0.000000   0.000000   0.000000   0.000000
    17  H    0.000000   0.000000   0.000000   0.000000
    18  C    0.000000   0.000000   0.000000   0.000000
    19  H    0.000000   0.000000   0.000000   0.000000
    20  O    0.000000   0.000000   0.000000   0.000000
    21  N    0.000000   0.000000   0.000000   0.000000
    22  H    0.000000   0.000000   0.000000   0.000000
    23  H    0.000000   0.000000   0.000000   0.000000
    24  H    0.000000   0.000000   0.000000   0.000000
    25  H    0.000000   0.000000   0.000000   0.000000
    26  H    0.000000   0.000000   0.000000   0.000000
    27  C    0.000000   0.000000   0.000000   0.000000
    28  H    0.000000   0.000000   0.000000   0.000000
    29  H    0.000000   0.000000   0.000000   0.000000
    30  H    0.000000   0.000000   0.000000   0.000000
    31  C    4.075215   0.000000   0.000000   0.000000
    32  H    0.000000   0.938769   0.000000   0.000000
    33  H    0.000000   0.000000   0.955711   0.000000
    34  H    0.000000   0.000000   0.000000   0.961144
 Mulliken atomic charges:
              1
     1  C   -0.070844
     2  C   -0.103522
     3  C   -0.203804
     4  C   -0.019859
     5  N   -0.005695
     6  C    0.345068
     7  O   -0.416219
     8  O   -0.265001
     9  C    0.084706
    10  H    0.037103
    11  H    0.035337
    12  H    0.045116
    13  H    0.092321
    14  C   -0.095223
    15  C   -0.100239
    16  H    0.069845
    17  H    0.066171
    18  C    0.266732
    19  H    0.089729
    20  O   -0.351627
    21  N   -0.073443
    22  H    0.103221
    23  H    0.063235
    24  H    0.062281
    25  H    0.100489
    26  H    0.115339
    27  C   -0.090196
    28  H    0.042774
    29  H    0.049124
    30  H    0.057920
    31  C   -0.075215
    32  H    0.061231
    33  H    0.044289
    34  H    0.038856
 Sum of Mulliken charges=   0.00000
 Atomic charges with hydrogens summed into heavy atoms:
              1
     1  C    0.054673
     2  C   -0.003032
     3  C   -0.088465
     4  C    0.083362
     5  N    0.086626
     6  C    0.345068
     7  O   -0.416219
     8  O   -0.265001
     9  C    0.202263
    10  H    0.000000
    11  H    0.000000
    12  H    0.000000
    13  H    0.000000
    14  C    0.040794
    15  C   -0.010510
    16  H    0.000000
    17  H    0.000000
    18  C    0.266732
    19  H    0.000000
    20  O   -0.351627
    21  N   -0.073443
    22  H    0.000000
    23  H    0.000000
    24  H    0.000000
    25  H    0.000000
    26  H    0.000000
    27  C    0.059621
    28  H    0.000000
    29  H    0.000000
    30  H    0.000000
    31  C    0.069161
    32  H    0.000000
    33  H    0.000000
    34  H    0.000000
 Sum of Mulliken charges=   0.00000
 APT atomic charges:
              1
     1  C   -0.047138
     2  C    0.007815
     3  C   -0.262220
     4  C    0.251598
     5  N   -0.629037
     6  C    1.501561
     7  O   -0.820281
     8  O   -0.686342
     9  C    0.318409
    10  H   -0.005330
    11  H   -0.007043
    12  H   -0.003584
    13  H    0.124435
    14  C   -0.028539
    15  C   -0.146476
    16  H    0.035976
    17  H    0.031972
    18  C    1.049820
    19  H    0.039456
    20  O   -0.712158
    21  N   -0.621553
    22  H    0.063673
    23  H    0.030315
    24  H    0.023041
    25  H    0.080470
    26  H    0.093996
    27  C    0.104353
    28  H   -0.000837
    29  H    0.015819
    30  H    0.042614
    31  C    0.119767
    32  H    0.033614
    33  H    0.011735
    34  H   -0.009093
 Sum of APT charges=   0.00081
 APT Atomic charges with hydrogens summed into heavy atoms:
              1
     1  C    0.006218
     2  C    0.088285
     3  C   -0.168224
     4  C    0.315272
     5  N   -0.504602
     6  C    1.501561
     7  O   -0.820281
     8  O   -0.686342
     9  C    0.302452
    10  H    0.000000
    11  H    0.000000
    12  H    0.000000
    13  H    0.000000
    14  C    0.039409
    15  C   -0.107020
    16  H    0.000000
    17  H    0.000000
    18  C    1.049820
    19  H    0.000000
    20  O   -0.712158
    21  N   -0.621553
    22  H    0.000000
    23  H    0.000000
    24  H    0.000000
    25  H    0.000000
    26  H    0.000000
    27  C    0.161949
    28  H    0.000000
    29  H    0.000000
    30  H    0.000000
    31  C    0.156024
    32  H    0.000000
    33  H    0.000000
    34  H    0.000000
 Sum of APT charges=   0.00081
 Full mass-weighted force constant matrix:
 Low frequencies ---   -4.0834   -3.1051   -2.8434    0.0120    0.0795    0.1041
 Low frequencies ---   24.8829   37.9028   49.0842
 Diagonal vibrational polarizability:
      130.9060762      53.7875859      34.7869649
 Harmonic frequencies (cm**-1), IR intensities (KM/Mole), Raman scattering
 activities (A**4/AMU), depolarization ratios for plane and unpolarized
 incident light, reduced masses (AMU), force constants (mDyne/A),
 and normal coordinates:
                     1                      2                      3
                     A                      A                      A
 Frequencies --    24.8827                37.9026                49.0839
 Red. masses --     4.2195                 5.6834                 2.7866
 Frc consts  --     0.0015                 0.0048                 0.0040
 IR Inten    --     0.9952                 3.5586                 1.2592
 Atom AN      X      Y      Z        X      Y      Z        X      Y      Z
   1   6     0.03   0.09  -0.03     0.00  -0.02   0.07    -0.04  -0.03   0.01
   2   6     0.00   0.10   0.00     0.01   0.00   0.01    -0.01  -0.05  -0.02
   3   6    -0.04   0.09   0.02     0.01   0.01  -0.02     0.02  -0.04  -0.03
   4   6    -0.06   0.06   0.01    -0.01  -0.01   0.02     0.03  -0.01  -0.01
   5   7    -0.07   0.07   0.02    -0.07   0.04   0.06     0.04  -0.01  -0.01
   6   6     0.08   0.01  -0.01     0.06  -0.03   0.04     0.02   0.00   0.01
   7   8     0.21  -0.02  -0.01     0.38  -0.15   0.08     0.03  -0.02   0.02
   8   8     0.05  -0.02  -0.04    -0.24   0.09  -0.02     0.00   0.03   0.02
   9   6     0.21  -0.09  -0.05    -0.18   0.06  -0.01    -0.03   0.04   0.04
  10   1     0.33   0.00   0.02    -0.04   0.06   0.31    -0.05   0.02   0.07
  11   1     0.27  -0.21  -0.12     0.01  -0.06  -0.27    -0.03   0.05   0.04
  12   1     0.15  -0.10  -0.07    -0.49   0.18  -0.06    -0.05   0.08   0.04
  13   1    -0.17   0.07  -0.01    -0.23   0.06   0.01     0.05   0.00  -0.01
  14   6     0.01   0.06  -0.02     0.01  -0.03   0.04    -0.03  -0.01   0.01
  15   6    -0.02   0.03  -0.01    -0.01  -0.02   0.02     0.01   0.01   0.00
  16   1     0.00   0.08  -0.02     0.02  -0.05   0.04    -0.02  -0.02   0.01
  17   1     0.03   0.04  -0.03     0.01  -0.04   0.05    -0.04   0.01   0.02
  18   6    -0.05  -0.01   0.01     0.00  -0.02  -0.02     0.01   0.02   0.00
  19   1     0.00   0.01  -0.01    -0.03   0.00   0.02     0.00   0.03   0.01
  20   8    -0.04   0.04   0.01     0.02  -0.07  -0.03     0.01   0.04   0.00
  21   7    -0.08  -0.10   0.03     0.00   0.04  -0.06     0.01   0.00   0.03
  22   1    -0.08   0.06   0.00     0.01  -0.04   0.05     0.05  -0.01  -0.01
  23   1     0.06   0.12  -0.05    -0.01  -0.07   0.10    -0.07  -0.06   0.02
  24   1     0.05   0.05  -0.06     0.00   0.03   0.11    -0.06  -0.01   0.03
  25   1     0.00   0.13   0.01     0.03   0.02  -0.02    -0.02  -0.07  -0.03
  26   1    -0.07   0.11   0.05     0.02   0.03  -0.07     0.04  -0.06  -0.05
  27   6    -0.12  -0.08   0.04    -0.01   0.02  -0.04     0.03   0.23  -0.15
  28   1    -0.24  -0.07   0.07     0.02   0.02  -0.04     0.06   0.19  -0.38
  29   1    -0.08  -0.17   0.05    -0.05   0.03  -0.06     0.04   0.44  -0.11
  30   1    -0.08   0.01   0.00    -0.03  -0.01  -0.01     0.02   0.25  -0.09
  31   6    -0.13  -0.19   0.06     0.04   0.09  -0.11    -0.09  -0.22   0.06
  32   1    -0.07  -0.21   0.04     0.02   0.10  -0.11    -0.02  -0.34   0.14
  33   1    -0.13  -0.28   0.07     0.02   0.15  -0.14    -0.06  -0.24   0.08
  34   1    -0.21  -0.17   0.09     0.11   0.07  -0.14    -0.25  -0.24  -0.02
                     4                      5                      6
                     A                      A                      A
 Frequencies --    52.0062                76.4673               103.5558
 Red. masses --     3.9835                 2.6650                 4.4284
 Frc consts  --     0.0063                 0.0092                 0.0280
 IR Inten    --     2.9168                 0.2364                 2.2852
 Atom AN      X      Y      Z        X      Y      Z        X      Y      Z
   1   6     0.07   0.03  -0.03     0.06   0.06  -0.15    -0.07  -0.02   0.13
   2   6     0.05   0.08  -0.08    -0.02   0.02   0.08    -0.07  -0.01   0.11
   3   6     0.00   0.07  -0.07    -0.06  -0.01   0.18    -0.03   0.02  -0.02
   4   6    -0.04   0.01  -0.01    -0.04   0.00   0.05     0.00   0.05  -0.11
   5   7    -0.12   0.05   0.01     0.06  -0.04   0.03     0.08   0.02  -0.14
   6   6    -0.05   0.01   0.03     0.05  -0.03   0.01     0.10   0.00  -0.08
   7   8    -0.04   0.00   0.04     0.05  -0.01   0.00     0.08  -0.06  -0.04
   8   8     0.00   0.01   0.05     0.03  -0.05   0.00     0.16   0.10  -0.02
   9   6     0.17  -0.06   0.09    -0.11   0.00  -0.06    -0.04   0.18   0.10
  10   1     0.26   0.03   0.11    -0.19  -0.06  -0.13    -0.23   0.05  -0.05
  11   1     0.18  -0.19   0.10    -0.14   0.13  -0.04    -0.18   0.33   0.29
  12   1     0.19  -0.05   0.10    -0.09  -0.04  -0.07     0.15   0.23   0.15
  13   1    -0.17   0.07  -0.01     0.11  -0.07   0.06     0.15   0.01  -0.11
  14   6     0.02  -0.02   0.00     0.05   0.07  -0.11     0.00   0.00  -0.01
  15   6    -0.01  -0.04   0.00    -0.01  -0.01  -0.03    -0.01   0.04  -0.07
  16   1    -0.01  -0.01  -0.01     0.05   0.16  -0.08     0.09  -0.05   0.00
  17   1     0.05  -0.06   0.01     0.07   0.06  -0.18    -0.02   0.02  -0.04
  18   6    -0.05  -0.09   0.02    -0.02  -0.02   0.00    -0.06  -0.04  -0.02
  19   1     0.02  -0.04   0.00    -0.01  -0.09  -0.07     0.04   0.08  -0.04
  20   8    -0.13  -0.26   0.04    -0.06  -0.04   0.01    -0.16  -0.17   0.00
  21   7     0.02   0.05   0.00     0.00   0.01   0.02    -0.01  -0.01   0.00
  22   1    -0.03  -0.03   0.01    -0.11   0.03   0.01    -0.02   0.09  -0.14
  23   1     0.06   0.03  -0.04     0.16   0.23  -0.23    -0.05  -0.11   0.21
  24   1     0.12   0.03  -0.01     0.05  -0.10  -0.30    -0.15   0.06   0.17
  25   1     0.08   0.12  -0.13    -0.05   0.00   0.17    -0.09  -0.03   0.20
  26   1    -0.01   0.11  -0.11    -0.13  -0.05   0.36    -0.02   0.03  -0.04
  27   6     0.08   0.12  -0.08     0.04   0.04  -0.02     0.02  -0.08   0.03
  28   1     0.32   0.08  -0.25     0.27   0.02  -0.15    -0.06  -0.06   0.12
  29   1    -0.02   0.40  -0.10    -0.07   0.27  -0.06     0.08  -0.18   0.06
  30   1    -0.01  -0.05   0.05    -0.05  -0.13   0.11     0.05  -0.03  -0.04
  31   6     0.03   0.07  -0.01     0.00   0.02   0.03    -0.02   0.00   0.07
  32   1    -0.04   0.02   0.10    -0.02   0.01   0.06    -0.07   0.01   0.10
  33   1     0.07   0.21  -0.01     0.02   0.05   0.04     0.02   0.02   0.10
  34   1     0.07   0.00  -0.13     0.00   0.01   0.01    -0.04   0.00   0.06
                     7                      8                      9
                     A                      A                      A
 Frequencies --   106.9449               131.0832               148.2460
 Red. masses --     2.0365                 1.4020                 1.4672
 Frc consts  --     0.0137                 0.0142                 0.0190
 IR Inten    --     2.8809                 0.6951                 1.1281
 Atom AN      X      Y      Z        X      Y      Z        X      Y      Z
   1   6     0.01   0.01  -0.02    -0.01  -0.01   0.07    -0.01   0.00  -0.01
   2   6     0.03   0.02  -0.10    -0.01   0.01   0.03     0.01  -0.01  -0.04
   3   6     0.02   0.02  -0.07    -0.02   0.02  -0.02     0.01  -0.01  -0.02
   4   6     0.00   0.00   0.03    -0.03   0.00  -0.01     0.01   0.00   0.01
   5   7    -0.06   0.04   0.06    -0.06   0.03   0.01     0.02   0.02   0.03
   6   6     0.04  -0.01   0.05    -0.02   0.01   0.01     0.03   0.01   0.03
   7   8     0.06   0.01   0.04     0.01   0.00   0.01    -0.02   0.05   0.01
   8   8     0.12  -0.08   0.05    -0.01  -0.01   0.01     0.10  -0.04   0.03
   9   6    -0.10   0.00  -0.05     0.00  -0.02  -0.01    -0.04   0.01  -0.04
  10   1    -0.37  -0.08  -0.49    -0.06   0.00  -0.18     0.05  -0.07   0.34
  11   1    -0.34   0.32   0.25    -0.10   0.04   0.11     0.19  -0.01  -0.38
  12   1     0.25  -0.18   0.00     0.15  -0.09   0.01    -0.47   0.14  -0.11
  13   1    -0.14   0.05   0.03    -0.10   0.04  -0.01     0.02   0.02   0.03
  14   6    -0.02  -0.01   0.03     0.02  -0.02  -0.01    -0.01   0.01   0.01
  15   6    -0.01   0.00   0.03    -0.01  -0.01  -0.03     0.00   0.01   0.01
  16   1    -0.07  -0.01   0.02     0.08  -0.02   0.00    -0.02   0.01   0.01
  17   1    -0.02  -0.02   0.07     0.03  -0.01  -0.05    -0.02   0.02   0.01
  18   6     0.00   0.00   0.02     0.00   0.00  -0.04    -0.01  -0.01   0.00
  19   1    -0.01   0.01   0.04    -0.03  -0.02  -0.04     0.00   0.02   0.01
  20   8     0.01  -0.02   0.01     0.02   0.05  -0.04    -0.02  -0.07   0.00
  21   7    -0.02   0.01  -0.01     0.02  -0.03  -0.01    -0.01   0.02  -0.02
  22   1     0.03  -0.03   0.05    -0.04  -0.02   0.00     0.03  -0.01   0.02
  23   1    -0.04  -0.01  -0.03     0.00  -0.07   0.12    -0.04  -0.02  -0.01
  24   1     0.05   0.03   0.02    -0.05   0.05   0.11    -0.01   0.01   0.00
  25   1     0.06   0.05  -0.19     0.00   0.03   0.03     0.01  -0.01  -0.07
  26   1     0.04   0.03  -0.12    -0.01   0.05  -0.05     0.03  -0.02  -0.04
  27   6    -0.05   0.02   0.00     0.07  -0.03  -0.03    -0.03   0.02  -0.01
  28   1    -0.12   0.03   0.02     0.35  -0.06  -0.14    -0.10   0.02   0.03
  29   1    -0.02  -0.04   0.01    -0.05   0.21  -0.08     0.01  -0.05   0.00
  30   1    -0.02   0.08  -0.03    -0.03  -0.24   0.10     0.00   0.08  -0.04
  31   6    -0.01   0.00  -0.05     0.01   0.01   0.06    -0.02   0.01   0.00
  32   1    -0.02  -0.03  -0.01     0.13   0.22  -0.26     0.11   0.17  -0.27
  33   1    -0.01   0.06  -0.06    -0.08  -0.39   0.07    -0.11  -0.33   0.00
  34   1     0.01  -0.03  -0.10    -0.05   0.23   0.44    -0.07   0.19   0.31
                    10                     11                     12
                     A                      A                      A
 Frequencies --   149.2564               158.1864               210.2021
 Red. masses --     2.2119                 2.0985                 2.3956
 Frc consts  --     0.0290                 0.0309                 0.0624
 IR Inten    --     0.0950                 1.6960                 0.2591
 Atom AN      X      Y      Z        X      Y      Z        X      Y      Z
   1   6    -0.08  -0.04   0.07     0.04   0.02   0.04    -0.03  -0.03  -0.07
   2   6    -0.04  -0.06   0.03     0.02   0.07  -0.01    -0.05  -0.03  -0.03
   3   6     0.01  -0.04  -0.03    -0.03   0.07  -0.02    -0.02  -0.04   0.02
   4   6     0.01   0.00   0.01    -0.05   0.01  -0.03     0.01   0.02   0.01
   5   7    -0.01   0.08   0.08    -0.06  -0.01  -0.04     0.07   0.03   0.02
   6   6     0.00   0.07   0.07     0.01  -0.05  -0.03     0.04   0.07  -0.01
   7   8     0.01   0.12   0.04    -0.02  -0.06  -0.01     0.04   0.11  -0.03
   8   8     0.00  -0.02   0.03     0.13  -0.06   0.01     0.01   0.08  -0.02
   9   6     0.00  -0.02  -0.11    -0.06   0.02   0.04     0.04   0.07  -0.03
  10   1     0.05   0.00  -0.04    -0.04  -0.11   0.36     0.05   0.09  -0.05
  11   1     0.08   0.00  -0.24     0.11   0.03  -0.20     0.03   0.07  -0.01
  12   1    -0.15  -0.08  -0.15    -0.38   0.20  -0.01     0.06   0.05  -0.03
  13   1    -0.06   0.11   0.04    -0.08  -0.02  -0.04     0.10   0.03   0.04
  14   6     0.04   0.04  -0.08    -0.01  -0.05   0.03    -0.12  -0.07   0.11
  15   6     0.01   0.01  -0.06    -0.03  -0.02   0.00     0.00   0.01   0.06
  16   1     0.20   0.08  -0.03    -0.05  -0.08   0.01    -0.30  -0.15   0.04
  17   1     0.02   0.10  -0.23     0.01  -0.09   0.09    -0.14  -0.09   0.32
  18   6     0.00  -0.01  -0.04    -0.01   0.00  -0.01    -0.01  -0.04   0.03
  19   1    -0.01  -0.03  -0.08    -0.02  -0.01   0.01     0.03   0.07   0.10
  20   8    -0.04  -0.01  -0.03     0.03   0.12  -0.01     0.04  -0.03   0.01
  21   7     0.02  -0.03  -0.01    -0.01  -0.04   0.02    -0.05  -0.08   0.01
  22   1     0.03  -0.06   0.05    -0.08   0.01  -0.04    -0.02   0.02   0.01
  23   1    -0.10  -0.17   0.17     0.04   0.01   0.05    -0.03   0.10  -0.18
  24   1    -0.21   0.08   0.13     0.08   0.04   0.07     0.10  -0.16  -0.13
  25   1    -0.05  -0.08   0.03     0.04   0.11  -0.02    -0.05  -0.05  -0.04
  26   1     0.04  -0.04  -0.09    -0.05   0.11  -0.04    -0.01  -0.09   0.06
  27   6     0.05  -0.06   0.00     0.04  -0.03   0.00     0.01  -0.07  -0.02
  28   1     0.16  -0.07  -0.02     0.29  -0.06  -0.11     0.38  -0.11  -0.18
  29   1     0.01   0.01  -0.02    -0.07   0.19  -0.04    -0.16   0.26  -0.09
  30   1     0.01  -0.15   0.04    -0.05  -0.22   0.12    -0.11  -0.35   0.15
  31   6     0.02  -0.03   0.01     0.01   0.01   0.01     0.00  -0.01  -0.05
  32   1    -0.13  -0.20   0.31    -0.11  -0.10   0.22    -0.01   0.02  -0.07
  33   1     0.14   0.32   0.04     0.09   0.29   0.01    -0.03   0.04  -0.08
  34   1     0.04  -0.22  -0.31     0.08  -0.14  -0.23     0.09  -0.01  -0.04
                    13                     14                     15
                     A                      A                      A
 Frequencies --   243.4979               250.8634               283.1103
 Red. masses --     2.3442                 3.3222                 3.6910
 Frc consts  --     0.0819                 0.1232                 0.1743
 IR Inten    --     1.0174                 1.8783                18.6518
 Atom AN      X      Y      Z        X      Y      Z        X      Y      Z
   1   6     0.06  -0.02  -0.05     0.02   0.06   0.06    -0.09   0.03  -0.02
   2   6    -0.04   0.00   0.10     0.09   0.08  -0.13    -0.04   0.00  -0.06
   3   6    -0.04   0.01   0.02     0.04   0.04   0.03    -0.01  -0.01   0.05
   4   6    -0.02   0.00  -0.05     0.02   0.00   0.03     0.00   0.02   0.12
   5   7    -0.07   0.06   0.00     0.20  -0.08  -0.02    -0.09  -0.02   0.07
   6   6    -0.02   0.03   0.04     0.04  -0.03   0.06    -0.02  -0.05  -0.08
   7   8     0.01   0.02   0.04    -0.03  -0.04   0.08     0.01   0.02  -0.12
   8   8     0.01  -0.01   0.04    -0.08  -0.02   0.03     0.02  -0.02  -0.07
   9   6     0.00  -0.01  -0.04     0.00  -0.06  -0.05    -0.02   0.01   0.13
  10   1     0.01   0.01  -0.05     0.03   0.00  -0.11    -0.07  -0.07   0.19
  11   1     0.02   0.02  -0.07     0.00  -0.06  -0.05    -0.06  -0.04   0.18
  12   1    -0.04  -0.06  -0.06     0.02  -0.14  -0.06     0.03   0.17   0.16
  13   1    -0.12   0.10  -0.04     0.42  -0.12   0.06    -0.22  -0.07   0.07
  14   6    -0.06  -0.12   0.07    -0.04  -0.01   0.07    -0.04   0.10   0.01
  15   6    -0.01  -0.01  -0.04    -0.03   0.07  -0.02     0.00   0.05   0.08
  16   1    -0.25  -0.23  -0.02    -0.12  -0.10   0.02    -0.01   0.14   0.03
  17   1    -0.06  -0.18   0.29    -0.03  -0.05   0.20    -0.07   0.14  -0.05
  18   6     0.02   0.03  -0.09    -0.04   0.06  -0.09     0.06   0.07  -0.04
  19   1    -0.04   0.06  -0.01    -0.10   0.11  -0.01    -0.07   0.01   0.05
  20   8     0.00  -0.01  -0.08    -0.09  -0.01  -0.08     0.09  -0.11  -0.06
  21   7     0.10   0.08  -0.06    -0.01   0.06  -0.08     0.11   0.15  -0.10
  22   1     0.01   0.00  -0.05    -0.03   0.03   0.00     0.02   0.02   0.13
  23   1     0.15   0.20  -0.18    -0.09  -0.06   0.10    -0.15  -0.02  -0.01
  24   1     0.17  -0.22  -0.18     0.09   0.19   0.19    -0.11   0.08   0.01
  25   1    -0.07  -0.01   0.25     0.15   0.13  -0.33    -0.03  -0.01  -0.17
  26   1    -0.07   0.01   0.07     0.02   0.05   0.04     0.02  -0.05   0.06
  27   6     0.07   0.00   0.00     0.02  -0.07  -0.01     0.05  -0.06   0.07
  28   1    -0.16   0.04   0.18     0.18  -0.06   0.05     0.27  -0.05   0.20
  29   1     0.19  -0.27   0.04    -0.06  -0.02  -0.05    -0.11  -0.06  -0.04
  30   1     0.15   0.16  -0.11    -0.04  -0.22   0.05    -0.04  -0.27   0.19
  31   6     0.01  -0.03   0.08    -0.09   0.00   0.07    -0.01  -0.10   0.01
  32   1    -0.02  -0.10   0.17    -0.15  -0.06   0.18     0.06  -0.25   0.11
  33   1     0.11  -0.04   0.15     0.02   0.04   0.15     0.04  -0.16   0.06
  34   1    -0.13  -0.05   0.02    -0.20  -0.03  -0.01    -0.24  -0.13  -0.07
                    16                     17                     18
                     A                      A                      A
 Frequencies --   308.8652               339.2647               347.1503
 Red. masses --     4.6599                 3.1392                 2.7181
 Frc consts  --     0.2619                 0.2129                 0.1930
 IR Inten    --    11.0361                 4.3006                 0.6411
 Atom AN      X      Y      Z        X      Y      Z        X      Y      Z
   1   6     0.12  -0.07   0.04    -0.02   0.06  -0.03     0.09  -0.04  -0.02
   2   6     0.12  -0.03  -0.05     0.01  -0.04   0.07     0.07  -0.10   0.11
   3   6     0.00  -0.08   0.07     0.10  -0.01  -0.03     0.11  -0.04  -0.10
   4   6    -0.02  -0.11   0.08     0.09   0.03   0.03     0.09  -0.03  -0.03
   5   7    -0.01  -0.03   0.14    -0.04   0.00   0.02    -0.03   0.01   0.00
   6   6     0.02  -0.01  -0.04    -0.02  -0.02  -0.01    -0.01   0.00  -0.01
   7   8     0.08   0.21  -0.18    -0.01  -0.04   0.00    -0.02  -0.03   0.01
   8   8     0.01   0.01  -0.06     0.00  -0.04  -0.01     0.01   0.00  -0.01
   9   6    -0.01   0.04   0.13    -0.02  -0.03   0.03     0.00   0.00  -0.01
  10   1    -0.04  -0.02   0.18    -0.03  -0.06   0.05     0.00   0.00   0.00
  11   1    -0.04  -0.02   0.20    -0.03  -0.05   0.05     0.00   0.01  -0.01
  12   1     0.06   0.18   0.17    -0.01   0.01   0.04     0.00   0.00  -0.01
  13   1    -0.11  -0.04   0.11    -0.13   0.01  -0.01    -0.14   0.05  -0.05
  14   6     0.09  -0.11   0.00    -0.01   0.13   0.06     0.07   0.01   0.03
  15   6    -0.05  -0.10  -0.05     0.01   0.10   0.08     0.03   0.03   0.00
  16   1     0.11  -0.12   0.00    -0.02   0.16   0.07     0.06   0.01   0.03
  17   1     0.14  -0.17  -0.02    -0.02   0.15   0.05     0.07   0.00   0.03
  18   6    -0.06  -0.02  -0.06    -0.04  -0.01  -0.04    -0.01   0.07   0.02
  19   1    -0.14  -0.12  -0.08     0.00   0.13   0.09     0.01   0.05   0.00
  20   8    -0.10   0.09  -0.04     0.07  -0.04  -0.07    -0.09   0.04   0.05
  21   7    -0.05   0.00  -0.03    -0.12  -0.13  -0.03    -0.05   0.12  -0.05
  22   1    -0.01  -0.14   0.10     0.23   0.04   0.05     0.08  -0.10   0.02
  23   1     0.09  -0.14   0.07    -0.02   0.18  -0.13     0.14   0.13  -0.12
  24   1     0.15   0.00   0.11    -0.02  -0.07  -0.14     0.09  -0.20  -0.16
  25   1     0.18   0.05  -0.17    -0.04  -0.12   0.16     0.01  -0.15   0.28
  26   1    -0.04  -0.05   0.10     0.14  -0.02  -0.09     0.15  -0.01  -0.22
  27   6    -0.03   0.03  -0.06     0.07  -0.06  -0.16    -0.08  -0.03   0.06
  28   1    -0.21   0.04  -0.02    -0.06  -0.07  -0.20     0.30  -0.04   0.07
  29   1     0.08  -0.09   0.00     0.27  -0.09  -0.01    -0.30   0.17  -0.06
  30   1     0.02   0.16  -0.14     0.15   0.05  -0.31    -0.21  -0.35   0.19
  31   6    -0.08   0.09   0.10    -0.08   0.10   0.11    -0.12   0.00  -0.04
  32   1    -0.21   0.12   0.16    -0.28   0.18   0.17    -0.05  -0.07  -0.01
  33   1     0.03   0.14   0.18     0.06   0.23   0.20    -0.12  -0.06  -0.03
  34   1    -0.07   0.08   0.09     0.02   0.08   0.10    -0.24  -0.01  -0.07
                    19                     20                     21
                     A                      A                      A
 Frequencies --   377.1630               405.5517               464.5686
 Red. masses --     4.1707                 4.6028                 2.8247
 Frc consts  --     0.3496                 0.4460                 0.3592
 IR Inten    --     4.6872                10.3115                 3.0691
 Atom AN      X      Y      Z        X      Y      Z        X      Y      Z
   1   6     0.03  -0.08   0.00    -0.01   0.01  -0.01     0.02  -0.01   0.00
   2   6     0.00  -0.02  -0.05    -0.07   0.04   0.06     0.01   0.01  -0.01
   3   6    -0.08  -0.04   0.01    -0.01   0.09  -0.15    -0.06   0.00  -0.02
   4   6    -0.07  -0.03  -0.01    -0.04   0.02  -0.13    -0.06  -0.02  -0.02
   5   7     0.00   0.01  -0.02     0.10  -0.03  -0.12     0.01  -0.03  -0.04
   6   6     0.01   0.03  -0.02     0.01  -0.03   0.09    -0.01   0.00   0.02
   7   8    -0.04  -0.08   0.05     0.10   0.21  -0.04     0.03   0.04  -0.01
   8   8     0.04   0.11   0.00    -0.08  -0.14   0.05     0.00   0.02   0.04
   9   6     0.06   0.10  -0.12    -0.08  -0.15   0.14     0.01   0.02  -0.02
  10   1     0.10   0.16  -0.18    -0.11  -0.19   0.18     0.02   0.04  -0.04
  11   1     0.10   0.16  -0.18    -0.11  -0.20   0.20     0.02   0.04  -0.04
  12   1     0.01  -0.03  -0.16    -0.03  -0.04   0.17    -0.01  -0.04  -0.03
  13   1     0.01   0.01  -0.01     0.42  -0.01  -0.05     0.16  -0.03   0.00
  14   6     0.07  -0.03  -0.04    -0.01  -0.02  -0.06     0.03   0.04   0.03
  15   6    -0.02  -0.10   0.04     0.01  -0.03  -0.02    -0.07  -0.07   0.10
  16   1     0.20   0.08   0.03     0.01   0.00  -0.05     0.13   0.20   0.11
  17   1     0.10  -0.02  -0.21     0.00  -0.02  -0.08     0.07   0.04  -0.17
  18   6    -0.01  -0.04   0.04     0.00  -0.01   0.05    -0.07  -0.06   0.09
  19   1     0.01  -0.14   0.02     0.10  -0.03   0.00    -0.02  -0.08   0.10
  20   8     0.25  -0.08  -0.04     0.16  -0.07   0.00     0.00   0.06   0.07
  21   7    -0.06   0.09  -0.04    -0.03   0.04   0.01    -0.05   0.11  -0.04
  22   1    -0.12  -0.02  -0.02    -0.10   0.04  -0.16     0.06   0.05  -0.05
  23   1     0.02  -0.14   0.04     0.09   0.09  -0.02     0.01   0.01  -0.02
  24   1     0.01  -0.02   0.04    -0.03  -0.05  -0.08     0.02  -0.03  -0.01
  25   1     0.05   0.06  -0.10    -0.10   0.03   0.21     0.03   0.05  -0.01
  26   1    -0.10  -0.04   0.05     0.01   0.15  -0.30    -0.08   0.03  -0.03
  27   6    -0.10   0.03   0.03    -0.07   0.03   0.05     0.22  -0.07  -0.06
  28   1    -0.01   0.04   0.05     0.04   0.02   0.04     0.15  -0.04   0.13
  29   1    -0.18   0.06  -0.02    -0.15   0.09   0.00     0.47  -0.25   0.09
  30   1    -0.14  -0.05   0.08    -0.10  -0.06   0.10     0.27  -0.10  -0.31
  31   6    -0.14   0.09   0.16    -0.05   0.03   0.05    -0.09  -0.03  -0.11
  32   1    -0.26   0.04   0.31    -0.07   0.00   0.10     0.05  -0.12  -0.13
  33   1     0.03   0.17   0.28    -0.01   0.06   0.08    -0.14  -0.13  -0.13
  34   1    -0.24   0.05   0.08    -0.09   0.01   0.02    -0.21  -0.03  -0.12
                    22                     23                     24
                     A                      A                      A
 Frequencies --   497.9167               507.5943               542.9081
 Red. masses --     2.4489                 3.5371                 4.5513
 Frc consts  --     0.3577                 0.5369                 0.7904
 IR Inten    --     2.0483                 3.5990                 2.8725
 Atom AN      X      Y      Z        X      Y      Z        X      Y      Z
   1   6     0.00  -0.01   0.00    -0.08   0.16   0.01     0.02  -0.13  -0.01
   2   6     0.05  -0.02  -0.07    -0.01   0.07   0.08    -0.12   0.04  -0.03
   3   6     0.00  -0.07   0.16     0.16   0.10   0.03    -0.10   0.04  -0.04
   4   6     0.08   0.04  -0.12     0.07  -0.11   0.02    -0.03   0.12   0.04
   5   7    -0.06   0.06  -0.09     0.03  -0.02   0.10     0.15   0.15   0.12
   6   6    -0.06   0.03   0.01     0.05  -0.03  -0.01     0.21   0.03  -0.02
   7   8     0.03   0.02   0.01    -0.03  -0.01  -0.01    -0.12  -0.06   0.08
   8   8     0.00  -0.05   0.02     0.00   0.03  -0.02    -0.04  -0.07  -0.20
   9   6    -0.02  -0.05   0.03     0.02   0.04  -0.02    -0.04  -0.08   0.05
  10   1    -0.04  -0.07   0.05     0.02   0.05  -0.03    -0.10  -0.19   0.17
  11   1    -0.03  -0.06   0.04     0.02   0.04  -0.02    -0.12  -0.22   0.19
  12   1    -0.02  -0.01   0.04     0.02   0.03  -0.02     0.08   0.24   0.13
  13   1    -0.22   0.17  -0.19    -0.24   0.01   0.02    -0.45   0.17  -0.04
  14   6     0.00  -0.03  -0.02    -0.15  -0.10  -0.17     0.06  -0.06   0.00
  15   6     0.09   0.05  -0.06     0.02  -0.11  -0.09     0.08   0.02  -0.03
  16   1    -0.06  -0.15  -0.08    -0.35  -0.24  -0.27     0.12  -0.11  -0.01
  17   1    -0.04  -0.02   0.13    -0.11  -0.21   0.06     0.00   0.00   0.01
  18   6     0.03   0.03   0.05     0.00  -0.03   0.07     0.02  -0.03   0.05
  19   1     0.18   0.09  -0.02     0.06  -0.20  -0.13     0.15   0.01  -0.02
  20   8     0.03  -0.01   0.06     0.05  -0.01   0.06    -0.01   0.02   0.07
  21   7    -0.05   0.02  -0.01    -0.05   0.04  -0.01    -0.02   0.03  -0.04
  22   1     0.02   0.10  -0.17     0.03  -0.20   0.07    -0.03   0.10   0.06
  23   1    -0.11  -0.23   0.12     0.02   0.06   0.15     0.10  -0.06  -0.02
  24   1    -0.02   0.19   0.18    -0.16   0.28   0.08     0.07  -0.20  -0.05
  25   1     0.04  -0.05  -0.08    -0.09  -0.09   0.15    -0.05   0.16  -0.07
  26   1    -0.12  -0.21   0.60     0.16   0.15  -0.06    -0.02   0.01  -0.13
  27   6     0.01  -0.02  -0.02     0.04  -0.01  -0.02     0.04  -0.02  -0.05
  28   1     0.07  -0.02   0.00     0.03   0.00   0.04     0.00  -0.01   0.00
  29   1     0.05   0.00   0.01     0.12  -0.06   0.03     0.11  -0.08  -0.01
  30   1     0.01  -0.08  -0.08     0.05  -0.05  -0.12     0.05  -0.02  -0.10
  31   6    -0.07   0.02  -0.01    -0.07   0.02  -0.02    -0.05   0.02  -0.01
  32   1    -0.07   0.01  -0.01    -0.05  -0.01  -0.01    -0.07   0.01   0.00
  33   1    -0.06   0.01   0.00    -0.06   0.00  -0.01    -0.01  -0.01   0.02
  34   1    -0.09   0.02  -0.02    -0.12   0.01  -0.03    -0.10   0.02  -0.01
                    25                     26                     27
                     A                      A                      A
 Frequencies --   562.9629               609.4462               644.8121
 Red. masses --     4.0341                 2.8573                 4.8625
 Frc consts  --     0.7533                 0.6253                 1.1912
 IR Inten    --    10.3575                16.2159                10.1686
 Atom AN      X      Y      Z        X      Y      Z        X      Y      Z
   1   6    -0.05  -0.06  -0.02    -0.03   0.08   0.00    -0.02   0.10   0.00
   2   6    -0.13   0.05  -0.02     0.06  -0.01   0.00     0.09  -0.04   0.02
   3   6     0.02   0.08   0.01     0.01  -0.02   0.01     0.04  -0.04   0.00
   4   6     0.03   0.08   0.09     0.00  -0.06  -0.12     0.00  -0.05  -0.05
   5   7    -0.04  -0.05  -0.03     0.02   0.02  -0.05     0.10   0.11   0.03
   6   6    -0.13   0.02  -0.01     0.18  -0.08   0.04    -0.23   0.27  -0.05
   7   8     0.05  -0.01  -0.02    -0.05   0.05   0.00     0.06  -0.06   0.12
   8   8     0.03   0.00   0.05    -0.04   0.02   0.02     0.07  -0.08  -0.18
   9   6     0.01   0.01  -0.01     0.00   0.00   0.00    -0.02  -0.04   0.02
  10   1     0.02   0.03  -0.03     0.01   0.02  -0.02    -0.10  -0.20   0.18
  11   1     0.03   0.05  -0.04     0.00   0.00  -0.01    -0.09  -0.17   0.15
  12   1    -0.03  -0.06  -0.03     0.00  -0.04  -0.01     0.09   0.32   0.10
  13   1     0.44  -0.17   0.15    -0.55   0.18  -0.28     0.40   0.15   0.08
  14   6     0.00  -0.04  -0.03    -0.04   0.07   0.05    -0.06   0.03   0.01
  15   6     0.14  -0.06   0.07    -0.04  -0.07   0.12    -0.08  -0.10   0.07
  16   1     0.01  -0.03  -0.02    -0.01   0.26   0.13    -0.09   0.18   0.07
  17   1    -0.07   0.04  -0.03     0.01   0.05  -0.12     0.03  -0.05  -0.09
  18   6     0.15  -0.07   0.05     0.02  -0.11   0.01    -0.08  -0.18   0.00
  19   1     0.20  -0.09   0.06     0.02   0.00   0.17    -0.02  -0.06   0.10
  20   8    -0.10   0.08   0.14    -0.04   0.05   0.02     0.00   0.05  -0.03
  21   7     0.08   0.00  -0.19     0.09   0.00  -0.10     0.05   0.03  -0.03
  22   1    -0.02   0.10   0.06    -0.05   0.00  -0.16    -0.01  -0.12  -0.01
  23   1     0.03  -0.04   0.00    -0.12   0.04  -0.01    -0.10   0.03   0.02
  24   1    -0.05  -0.09  -0.04    -0.04   0.13   0.04    -0.05   0.18   0.06
  25   1    -0.12   0.06  -0.07     0.01  -0.08   0.08     0.03  -0.14   0.12
  26   1     0.12   0.02  -0.09    -0.09  -0.01   0.18    -0.03  -0.03   0.11
  27   6    -0.07  -0.06  -0.15    -0.07  -0.01  -0.04    -0.02   0.02   0.02
  28   1    -0.11  -0.05  -0.14    -0.07  -0.02  -0.07    -0.02   0.02   0.04
  29   1    -0.17  -0.11  -0.23    -0.22  -0.02  -0.16    -0.11  -0.01  -0.05
  30   1    -0.09  -0.02  -0.04    -0.09   0.02   0.09    -0.04   0.02   0.09
  31   6    -0.01   0.04   0.05     0.07  -0.01   0.04     0.04  -0.01   0.01
  32   1    -0.21   0.10   0.14    -0.04   0.03   0.08     0.04  -0.02   0.03
  33   1     0.23   0.00   0.25     0.19  -0.03   0.14     0.07  -0.04   0.04
  34   1    -0.12   0.08   0.10     0.00   0.02   0.07    -0.01   0.00   0.01
                    28                     29                     30
                     A                      A                      A
 Frequencies --   709.2600               723.4534               747.4453
 Red. masses --     2.5405                 2.8530                 2.3889
 Frc consts  --     0.7530                 0.8798                 0.7863
 IR Inten    --    35.8803                66.0657                47.5075
 Atom AN      X      Y      Z        X      Y      Z        X      Y      Z
   1   6     0.04   0.08  -0.02     0.00   0.02   0.04    -0.04  -0.05   0.02
   2   6     0.11  -0.06   0.02     0.02   0.01   0.03    -0.05   0.06  -0.04
   3   6    -0.11  -0.08  -0.09    -0.07  -0.01   0.02     0.12   0.07   0.06
   4   6    -0.09  -0.02   0.00    -0.05  -0.10  -0.04     0.05  -0.08  -0.06
   5   7    -0.08   0.03   0.02     0.14  -0.03   0.01    -0.10   0.05  -0.03
   6   6     0.10  -0.01   0.01    -0.15   0.06  -0.02     0.10   0.02   0.02
   7   8    -0.03   0.00   0.02     0.04   0.00   0.01    -0.02   0.01   0.04
   8   8    -0.01   0.00  -0.06     0.03  -0.01   0.01    -0.01   0.00  -0.07
   9   6     0.00   0.00   0.00     0.00   0.00   0.00     0.00   0.00  -0.01
  10   1    -0.02  -0.03   0.03     0.00   0.00   0.00    -0.03  -0.06   0.04
  11   1    -0.02  -0.03   0.03     0.01   0.01  -0.01    -0.03  -0.05   0.05
  12   1     0.03   0.09   0.02     0.00   0.00   0.00     0.05   0.13   0.03
  13   1     0.54  -0.11   0.25    -0.57   0.18  -0.28     0.44   0.01   0.12
  14   6    -0.01   0.04  -0.03    -0.03   0.00   0.00    -0.04  -0.07   0.03
  15   6    -0.02   0.02   0.00    -0.05  -0.02   0.00    -0.04  -0.08   0.05
  16   1    -0.23  -0.06  -0.11     0.09   0.08   0.06     0.31   0.21   0.22
  17   1     0.03  -0.07   0.20     0.01   0.00  -0.16    -0.01   0.02  -0.44
  18   6     0.10   0.14   0.04     0.13   0.23   0.03     0.06   0.14  -0.03
  19   1    -0.08  -0.05  -0.04    -0.18  -0.05  -0.04    -0.17  -0.04   0.04
  20   8     0.01  -0.03   0.08     0.00  -0.06   0.08    -0.02  -0.03  -0.01
  21   7     0.01  -0.03  -0.03     0.00  -0.05  -0.01    -0.02  -0.02   0.02
  22   1    -0.01  -0.09   0.07    -0.07  -0.05  -0.08     0.00  -0.11  -0.05
  23   1    -0.06  -0.14   0.11     0.06   0.19  -0.07     0.02   0.14  -0.10
  24   1    -0.06   0.30   0.14     0.04  -0.13  -0.08     0.12  -0.22  -0.08
  25   1     0.04  -0.06   0.34     0.13   0.13  -0.26    -0.07  -0.01  -0.09
  26   1    -0.23  -0.03   0.05    -0.06   0.16  -0.26     0.06  -0.01   0.29
  27   6    -0.01  -0.04  -0.07    -0.01  -0.04  -0.07     0.00  -0.01   0.00
  28   1    -0.04  -0.04  -0.09    -0.03  -0.05  -0.12     0.01  -0.01  -0.02
  29   1     0.01  -0.05  -0.06     0.03  -0.03  -0.04     0.04   0.03   0.04
  30   1     0.00  -0.01  -0.06     0.00  -0.02  -0.08     0.01  -0.02  -0.04
  31   6     0.01   0.00   0.01     0.01   0.00   0.01    -0.01   0.00   0.00
  32   1    -0.04   0.03   0.02    -0.04   0.03   0.00     0.00   0.01  -0.02
  33   1     0.07   0.00   0.05     0.05   0.01   0.03    -0.05   0.02  -0.03
  34   1     0.02   0.01   0.03     0.06   0.00   0.03     0.04  -0.01   0.00
                    31                     32                     33
                     A                      A                      A
 Frequencies --   773.2542               859.4246               928.9975
 Red. masses --     1.5453                 1.9971                 2.6647
 Frc consts  --     0.5444                 0.8691                 1.3550
 IR Inten    --    36.7229                16.6674                 4.7398
 Atom AN      X      Y      Z        X      Y      Z        X      Y      Z
   1   6    -0.03   0.04   0.06     0.05  -0.02  -0.11    -0.05   0.07   0.06
   2   6     0.05  -0.05   0.07    -0.04  -0.02   0.05     0.05  -0.01   0.00
   3   6    -0.02  -0.06   0.09     0.01   0.00   0.08    -0.07  -0.02  -0.07
   4   6    -0.01   0.00  -0.01     0.01   0.02   0.03    -0.02   0.00   0.00
   5   7    -0.07   0.03  -0.04    -0.01   0.01  -0.08     0.01   0.00   0.02
   6   6     0.05   0.00   0.01     0.02   0.02   0.02    -0.01   0.00  -0.01
[...]
 900,0.00000373,-0.00000707,0.00001287,-0.00000185,0.00002669,-0.000017
 55,0.00002238,-0.00006000,-0.00000377,0.00000008,0.00000267,-0.0000006
 4,0.00000517,-0.00000028,-0.00080806,-0.00016147,-0.00224235,-0.000011
 22,0.00001294,-0.00001893,0.00046939,-0.00025328,-0.00034869,0.0068400
 3,0.00280582,-0.01052294,-0.00001659,-0.00000893,0.00002879,0.00000239
 ,-0.00000077,0.00000256,0.00000140,0.00000141,-0.00000146,-0.00000133,
 0.00000063,0.00000083,-0.00000047,-0.00000383,0.00000057,-0.02584734,-
 0.04620459,0.03519372,-0.01718812,-0.01070541,0.02263803,0.03046075,0.
 04977135,-0.00000004,-0.00000147,-0.00000651,-0.00000724,-0.00000459,-
 0.00000593,0.00001448,0.00001074,0.00002429,-0.00008550,0.00003468,0.0
 0006652,0.00002061,0.00001674,0.00000652,0.00000422,0.00000509,-0.0000
 2007,-0.00000334,-0.00000500,0.00001169,-0.00000609,-0.00000456,0.0000
 0602,0.00000298,0.00000334,0.00000021,-0.00000016,-0.00000026,-0.00000
 007,0.00000003,-0.00000005,0.00000018,-0.00000021,-0.00000063,-0.00000
 037,-0.00000731,-0.00000517,0.00000128,0.00001684,0.00000010,0.0000139
 0,-0.00008529,0.00001379,-0.00003049,-0.00000165,-0.00000109,-0.000000
 44,-0.00000064,0.00000277,0.00000210,-0.00059745,-0.00026065,-0.002563
 23,-0.00002772,-0.00000144,-0.00001643,0.00046271,-0.00021741,-0.00016
 958,0.00789855,-0.00310901,-0.01343243,0.00006312,-0.00001675,-0.00005
 763,0.00000203,-0.00000108,0.00000129,0.00000095,-0.00000031,0.0000010
 3,0.00000308,0.00000150,0.00000037,0.00000379,-0.00000045,-0.00000086,
 0.12029251,0.03381484,-0.19779169,0.00822922,0.00916096,-0.00890895,-0
 .13813345,-0.03843882,0.22297329,0.00000349,-0.00001223,0.00001856,0.0
 0003908,0.00005547,0.00002600,-0.00000301,-0.00010187,-0.00009076,-0.0
 0291027,0.00248429,0.00473150,-0.00016674,-0.00005471,-0.00001536,-0.0
 0004149,-0.00008700,0.00033075,0.00000307,0.00006776,-0.00019713,0.000
 03439,0.00007995,-0.00010800,-0.00000109,-0.00003749,-0.00000681,0.000
 00297,0.00000015,-0.00000024,-0.00000186,0.00000370,-0.00000007,0.0000
 0277,0.00000900,0.00000393,0.00007240,0.00003487,-0.00000125,-0.000061
 34,-0.00002572,-0.00004964,0.00011314,0.00062742,0.00096202,0.00001324
 ,-0.00000208,0.00000688,0.00000975,-0.00001632,-0.00000670,0.00085864,
 -0.00072122,-0.00198397,0.00025563,0.00013159,-0.00024649,-0.00000379,
 0.00008484,0.00065153,-0.00532946,0.00023929,-0.00407200,-0.01099964,-
 0.00184902,0.00286315,-0.00000897,0.00000257,-0.00000344,-0.00000877,0
 .00000417,-0.00000627,-0.00001730,-0.00000849,-0.00000375,-0.00002509,
 -0.00000416,0.00002830,-0.25319214,0.06840580,-0.05188193,-0.00380012,
 0.00867908,-0.00321354,-0.02559971,0.00583397,0.00399137,0.30093182,0.
 00000385,0.00000361,0.00000658,0.00001250,-0.00000291,0.00000157,0.000
 00914,-0.00005211,0.00000714,0.00093570,0.00021469,-0.00089930,0.00001
 318,-0.00007554,0.00003209,-0.00007446,0.00006942,0.00020116,0.0000559
 6,-0.00004101,-0.00010917,0.00001774,0.00000796,-0.00005888,-0.0000064
 3,-0.00000684,0.00000266,0.00000069,0.00000006,0.00000029,-0.00000022,
 0.00000030,0.00000027,-0.00000006,0.00000033,0.00000054,-0.00000256,-0
 .00000423,0.00001210,-0.00000835,-0.00002610,0.00002108,0.00062648,-0.
 00119813,-0.00194951,-0.00000692,0.00001510,0.00000241,-0.00000762,0.0
 0000058,-0.00000660,-0.00017747,0.00048178,-0.00191184,0.00026472,-0.0
 0125927,0.00009203,0.00015668,-0.00009303,0.00042358,-0.01323168,0.007
 38681,-0.00214173,-0.00038238,-0.00034765,0.00040812,-0.00000267,0.000
 00118,-0.00000036,0.00000300,-0.00000958,-0.00000458,0.00000331,-0.000
 00199,-0.00000360,0.00000415,0.00001338,-0.00000939,0.07161172,-0.0633
 2150,0.01702386,0.02644599,-0.01609665,0.00715599,-0.00211615,0.004207
 46,-0.00140374,-0.08351190,0.07114557,0.00000462,0.00002115,0.00002229
 ,-0.00003968,-0.00002139,-0.00002409,-0.00001122,0.00003531,0.00001802
 ,0.00271878,-0.00114140,-0.00235273,-0.00003622,-0.00005002,-0.0002267
 3,0.00025530,0.00036240,-0.00009385,-0.00008205,-0.00013590,-0.0000423
 7,-0.00005916,-0.00011249,0.00008455,0.00001965,0.00005002,0.00001210,
 -0.00000514,-0.00000112,0.00000024,0.00000230,-0.00000416,0.00000147,-
 0.00000421,-0.00001239,-0.00000532,0.00000700,-0.00002941,-0.00000859,
 0.00000566,0.00002169,-0.00003216,0.00073629,-0.00199906,-0.00165335,-
 0.00000292,0.00000364,-0.00000782,-0.00001506,0.00000653,0.00000814,-0
 .00085149,-0.00044868,-0.00346898,0.00022131,-0.00106528,-0.00012054,0
 .00016257,-0.00010808,0.00055314,-0.01914856,0.00529916,-0.00228535,0.
 00786640,0.00063332,-0.00373896,-0.00000378,-0.00000001,-0.00000520,0.
 00000110,-0.00000438,0.00000594,0.00000979,0.00000485,0.00000496,-0.00
 000359,0.00001311,0.00001340,-0.05072955,0.01599451,-0.05208617,-0.008
 34364,0.00583446,0.00054176,0.01972618,-0.00592259,0.00249910,0.048801
 12,-0.01526049,0.06406533,0.00000047,0.00000705,0.00002559,0.00002820,
 0.00000383,0.00001272,0.00006654,0.00003849,-0.00003296,-0.00005034,-0
 .00011166,0.00000691,0.00031376,0.00014830,0.00000428,-0.00026158,-0.0
 0041571,0.00009313,0.00009420,0.00014760,0.00001654,0.00007068,0.00014
 513,-0.00011541,-0.00002253,-0.00006856,-0.00000969,0.00000736,0.00000
 110,0.00000008,-0.00000341,0.00000650,-0.00000136,0.00000540,0.0000154
 1,0.00000755,-0.00006725,0.00002752,0.00000393,-0.00022808,0.00008130,
 -0.00014792,0.00019775,0.00123949,0.00133449,-0.00000981,-0.00000981,-
 0.00000793,0.00000196,0.00000632,-0.00000319,-0.03231176,0.01599129,0.
 00641683,-0.00001420,0.00003582,-0.00000101,-0.00450322,0.00195940,0.0
 0273799,-0.20784520,0.06764049,-0.05830356,-0.00007382,0.00000423,0.00
 001749,-0.00000094,0.00000296,0.00000333,0.00000083,0.00000738,0.00000
 077,-0.00001272,0.00000203,0.00000278,0.00000338,-0.00002079,0.0000006
 3,-0.02138492,-0.00279219,-0.01895530,-0.00101238,-0.00119252,-0.00114
 850,0.00003516,-0.00003066,-0.00092822,-0.00023609,-0.00042896,-0.0010
 0960,0.52174219,-0.00000408,-0.00001038,0.00001136,0.00000956,0.000015
 44,0.00001403,0.00007172,0.00003511,0.00008135,0.00018390,-0.00014840,
 -0.00003405,0.00033135,0.00004733,0.00010874,-0.00022574,-0.00020680,-
 0.00021127,0.00005966,0.00006502,0.00020312,0.00006175,0.00000999,0.00
 002116,-0.00003819,-0.00001581,-0.00000107,0.00000160,0.00000148,-0.00
 000108,0.00000106,-0.00000106,-0.00000181,-0.00000041,0.00000247,0.000
 00249,-0.00012562,0.00002324,0.00001182,-0.00008199,0.00005834,-0.0000
 3447,0.00125159,0.00192182,-0.00029257,-0.00001570,0.00000754,0.000002
 92,0.00002047,0.00000432,-0.00001035,0.01007062,-0.00579912,0.00277093
 ,-0.00002560,0.00003623,-0.00008009,0.00146324,-0.00113937,-0.00302464
 ,0.08448365,-0.09482513,0.01676668,0.00004829,-0.00002807,-0.00007691,
 0.00000100,0.00000237,0.00000128,0.00000783,-0.00000168,-0.00000486,-0
 .00000014,0.00000076,-0.00000960,0.00002266,-0.00001043,-0.00001866,-0
 .01479353,0.00796623,-0.00414332,-0.00105871,0.00034810,-0.00064744,-0
 .00000843,0.00064329,0.00046252,-0.00029598,-0.00113409,-0.00214087,-0
 .00085200,0.52615570,0.00000979,-0.00009487,-0.00015116,-0.00003476,-0
 .00002770,-0.00001105,0.00007302,0.00013222,0.00003924,-0.00020458,-0.
 00035614,0.00015392,0.00001881,0.00026313,0.00003049,0.00006201,-0.000
 41203,-0.00026740,-0.00008655,0.00018036,0.00018715,-0.00002599,0.0000
 8145,0.00003993,0.00001637,-0.00002965,-0.00001278,0.00000387,0.000000
 11,-0.00000190,-0.00000243,0.00000503,0.00000017,0.00000235,0.00000806
 ,0.00000142,-0.00003218,-0.00001078,-0.00000902,0.00052310,-0.00004747
 ,0.00045338,0.00114136,-0.00141913,-0.00266922,-0.00001140,0.00000550,
 0.00003308,-0.00000951,0.00004817,0.00004080,0.01907031,-0.00959600,0.
 01149648,-0.00008240,0.00001438,-0.00011483,0.00455184,-0.00093088,-0.
 00211034,-0.06547116,0.01801351,-0.09894722,0.00010598,-0.00005638,-0.
 00008420,0.00003666,-0.00001376,0.00002712,0.00000643,0.00001561,0.000
 00199,0.00000248,0.00001269,0.00000560,0.00000992,-0.00002658,-0.00000
 546,-0.02589913,0.00718468,-0.01611300,-0.00081172,-0.00079887,0.00017
 671,-0.00148689,-0.00046853,-0.00183299,-0.00054908,-0.00160807,-0.001
 72049,-0.00288809,0.01933114,0.55321731,0.00000254,-0.00000825,-0.0000
 1240,-0.00000091,-0.00000382,0.00000134,0.00002083,0.00002295,0.000020
 41,-0.00001291,-0.00005426,-0.00000173,0.00008814,0.00005323,0.0000315
 1,-0.00004785,-0.00011698,-0.00007664,0.00000372,0.00004462,0.00006637
 ,0.00001327,0.00002052,0.00000502,-0.00000705,-0.00001167,-0.00000201,
 0.00000134,0.00000042,-0.00000051,-0.00000027,0.00000092,-0.00000033,0
 .00000041,0.00000233,0.00000108,-0.00003723,0.00000376,-0.00000014,0.0
 0001819,0.00001679,0.00004628,0.00023093,0.00006520,-0.00007188,-0.000
 00947,0.00000467,0.00000426,-0.00000210,0.00001086,0.00000081,-0.00347
 279,0.00008047,-0.00039330,0.00001539,-0.00001356,-0.00002505,-0.00300
 519,0.00051316,0.00230129,-0.00746648,-0.01276125,-0.01511266,0.000025
 98,-0.00000922,-0.00002056,0.00000430,-0.00000094,0.00000402,0.0000029
 7,0.00000138,-0.00000062,0.00000011,0.00000303,-0.00000096,0.00000427,
 -0.00000518,-0.00000426,-0.00267298,0.00114146,-0.00078305,0.00002770,
 0.00010490,0.00013436,0.00004981,0.00009474,0.00011260,-0.00002907,-0.
 00029423,-0.00043296,-0.08529996,-0.07239556,-0.06366475,0.09618575,-0
 .00000064,-0.00001278,-0.00000881,0.00000575,0.00000742,0.00000422,0.0
 0000642,-0.00000470,-0.00001704,-0.00004042,0.00000333,-0.00000128,0.0
 0003465,0.00001852,-0.00000440,-0.00003276,-0.00005487,0.00003267,0.00
 001326,0.00001997,-0.00001366,0.00001110,0.00002295,-0.00002317,-0.000
 00286,-0.00001054,-0.00000141,0.00000110,0.00000026,0.00000011,-0.0000
 0055,0.00000106,-0.00000006,0.00000081,0.00000245,0.00000108,-0.000002
 86,0.00000614,0.00000207,0.00001542,-0.00000131,0.00000569,-0.00008763
 ,-0.00010763,0.00003532,0.00000125,-0.00000202,0.00000077,0.00000608,0
 .00000179,0.00000249,0.00029641,0.00093896,0.00001446,0.00000583,0.000
 01602,0.00000583,0.00004339,-0.00010402,-0.00034588,0.00250455,0.01003
 682,0.00613259,-0.00002113,-0.00000025,0.00000729,0.00000236,-0.000000
 18,0.00000142,-0.00000045,0.00000290,-0.00000019,-0.00000342,-0.000001
 37,0.00000037,-0.00000010,-0.00000271,0.00000164,0.00162858,-0.0005985
 3,0.00034490,0.00002341,-0.00004744,-0.00002796,-0.00000718,-0.0000542
 0,-0.00004617,0.00002330,0.00023892,0.00028868,-0.07571301,-0.16112445
 ,-0.10779131,0.08330468,0.18124246,0.00000083,-0.00000635,-0.00000459,
 0.00000078,0.00000180,-0.00000070,0.00000375,0.00000076,0.00000266,-0.
 00000706,-0.00000048,-0.00001074,0.00002468,0.00000326,0.00000736,-0.0
 0002228,-0.00001064,0.00000371,0.00000912,-0.00000006,0.00000388,0.000
 00822,0.00000288,-0.00000773,-0.00000453,-0.00000181,0.00000059,0.0000
 0001,0.00000031,0.00000018,0.00000018,-0.00000016,-0.00000031,0.000000
 33,0.00000060,0.00000066,-0.00000892,0.00000227,0.00000309,0.00001351,
 0.00000324,0.00001256,0.00001553,-0.00001547,-0.00012973,-0.00000035,0
 .00000109,0.00000306,0.00000131,0.00000280,0.00000371,-0.00024653,0.00
 021424,0.00208539,-0.00000369,-0.00000114,-0.00000400,0.00061840,-0.00
 031694,-0.00139735,-0.00544252,-0.00248969,-0.00282440,0.00000444,-0.0
 0000095,-0.00000405,0.00000163,-0.00000006,0.00000132,-0.00000047,0.00
 000083,0.00000020,-0.00000074,0.00000010,0.00000010,0.00000077,-0.0000
 0074,-0.00000050,-0.00099444,-0.00023267,0.00002604,0.00001492,0.00002
 964,-0.00000202,0.00002259,0.00005809,0.00006709,-0.00001522,-0.000065
 81,-0.00006842,-0.06531759,-0.10567539,-0.13396877,0.07285692,0.122763
 48,0.14918671,-0.00000118,0.00002064,0.00003127,0.00000544,0.00000369,
 0.00000092,-0.00001635,-0.00002372,-0.00000567,0.00005573,0.00005962,-
 0.00003003,-0.00001983,-0.00005912,-0.00000700,-0.00000284,0.00009857,
 0.00006316,0.00001797,-0.00004393,-0.00004634,0.00000390,-0.00001811,-
 0.00000851,-0.00000304,0.00000651,0.00000312,-0.00000088,0.,0.00000053
 ,0.00000053,-0.00000106,-0.00000002,-0.00000051,-0.00000188,-0.0000002
 9,0.00000707,-0.00000021,0.00000084,-0.00010116,0.00001247,-0.00007797
 ,-0.00010715,0.00025836,0.00048268,-0.00000013,0.00000132,-0.00000611,
 -0.00000156,-0.00000788,-0.00000811,-0.00286246,0.00105760,-0.00111403
 ,0.00001903,-0.00001367,0.00002497,0.00040492,-0.00028316,-0.00032483,
 -0.01243476,0.00610156,0.01533407,-0.00001711,0.00001451,0.00002057,-0
 .00000756,0.00000285,-0.00000538,-0.00000106,-0.00000356,-0.00000019,-
 0.00000012,-0.00000193,-0.00000090,-0.00000239,0.00000576,0.00000134,-
 0.00366354,-0.00104706,-0.00126721,-0.00024680,-0.00017020,-0.00004175
 ,-0.00096788,0.00018866,-0.00121550,0.00005784,0.00008612,0.00013324,-
 0.12598275,0.02060117,0.11881521,0.00602321,0.00018820,-0.00442801,0.1
 4263603,0.00000121,-0.00001215,-0.00001597,0.00000146,0.00000055,0.000
 00281,0.00001012,0.00000899,-0.00000761,-0.00002974,-0.00002899,0.0000
 1632,0.00000906,0.00002902,-0.00000862,-0.00000868,-0.00005883,0.00002
 575,0.00000506,0.00001974,-0.00000971,0.00000195,0.00002321,-0.0000190
 9,0.00000119,-0.00000802,-0.00000176,0.00000086,0.00000021,0.00000034,
 -0.00000068,0.00000110,-0.00000010,0.00000109,0.00000219,0.00000085,0.
 00000076,0.00000057,0.00000134,0.00004107,-0.00000535,0.00003690,0.000
 04747,-0.00009968,-0.00021294,-0.00000141,-0.00000202,0.00000336,0.000
 00174,0.00000503,0.00000126,0.00135687,0.00002961,0.00040108,-0.000007
 41,0.00001470,-0.00001186,-0.00001749,0.00009426,0.00005914,0.00613393
 ,0.00043909,-0.00606928,-0.00000663,-0.00000148,-0.00000179,0.00000353
 ,-0.00000120,0.00000314,0.00000070,0.00000250,-0.00000062,-0.00000162,
 0.00000056,0.00000052,0.00000089,-0.00000373,0.00000032,-0.00008417,0.
 00084801,0.00000672,-0.00007805,-0.00009795,-0.00000679,0.00002747,-0.
 00000527,-0.00001489,-0.00002203,-0.00007300,-0.00006330,0.02077360,-0
 .04532924,-0.02835170,0.00874564,-0.00367975,-0.02033325,-0.02425947,0
 .04677793,-0.00000143,0.00001584,0.00002229,0.00000096,0.00000191,-0.0
 0000114,-0.00001395,-0.00001743,0.00000282,0.00003797,0.00004835,-0.00
 002019,-0.00001886,-0.00004898,0.00000133,0.00001247,0.00009443,0.0000
 1518,0.00000106,-0.00003890,-0.00001982,-0.00000305,-0.00002683,0.0000
 0943,0.00000018,0.00001122,0.00000279,-0.00000114,-0.00000028,0.000000
 11,0.00000066,-0.00000128,0.00000018,-0.00000097,-0.00000275,-0.000000
 94,0.00000535,-0.00000134,0.00000037,-0.00006667,0.00000415,-0.0000505
 2,-0.00009671,0.00015650,0.00036864,0.00000086,0.00000214,-0.00000500,
 -0.00000117,-0.00000677,-0.00000524,-0.00163867,0.00067632,-0.00187383
 ,0.00001706,-0.00001569,0.00001719,0.00063431,-0.00028346,0.00031563,-
 0.00360699,0.00114558,0.01152643,0.00000078,0.00000689,0.00000761,-0.0
 0000541,0.00000175,-0.00000435,-0.00000045,-0.00000340,0.00000013,0.00
 000149,-0.00000154,-0.00000075,-0.00000111,0.00000546,0.00000081,-0.00
 143183,-0.00047815,0.00033952,0.00001450,-0.00001686,-0.00000083,-0.00
 014061,0.00013016,-0.00077141,0.00001074,0.00004883,0.00007184,0.12231
 017,-0.03025616,-0.20627495,0.00803185,-0.01003656,-0.02151459,-0.1357
 6072,0.03354590,0.23499275,0.00000027,0.00000414,0.00000025,-0.0000060
 8,-0.00000345,-0.00000521,-0.00002454,-0.00001702,0.00000842,-0.000015
 73,0.00005385,-0.00002029,-0.00006429,-0.00005080,0.00000109,0.0000412
 1,0.00011741,-0.00000736,-0.00001230,-0.00004486,-0.00001216,-0.000011
 16,-0.00003611,0.00002283,0.00000300,0.00001507,0.00000326,-0.00000161
 ,-0.00000040,0.00000002,0.00000085,-0.00000157,0.00000021,-0.00000124,
 -0.00000367,-0.00000144,0.00001336,-0.00000599,-0.00000125,0.00003593,
 -0.00001447,0.00002952,-0.00012633,-0.00044339,-0.00010005,0.00000111,
 0.00000464,0.,-0.00000587,-0.00000212,0.00000045,0.00030611,0.00071521
 ,-0.00163159,0.00002012,-0.00002895,0.00001144,0.00037094,0.00015139,0
 .00072730,-0.00255814,0.02184476,-0.01256753,0.00001677,0.00000536,0.0
 0000366,-0.00000111,-0.00000036,-0.00000156,-0.00000061,-0.00000276,0.
 00000039,0.00000336,-0.00000014,-0.00000035,-0.00000292,0.00000692,0.0
 0000040,0.00009538,0.00090398,-0.00082037,-0.00009620,-0.00037313,0.00
 016833,-0.00004407,-0.00002043,-0.00001865,0.00003898,0.00000150,0.000
 10754,-0.04325205,-0.02876988,0.01681118,-0.00065331,-0.01220404,0.002
 89404,-0.00278865,-0.01264830,0.01171015,0.04872057,0.00000052,0.00000
 499,0.00000562,-0.00000061,-0.00000216,-0.00000148,-0.00000172,0.00000
 120,0.00000034,0.00001288,0.00000369,0.00000192,-0.00002477,-0.0000054
 1,-0.00000433,0.00001500,0.00002859,0.00000844,-0.00000086,-0.00001175
 ,-0.00000876,-0.00000189,-0.00000648,0.00000189,-0.00000024,0.00000365
 ,0.00000052,-0.00000057,0.00000007,0.00000015,0.00000023,-0.00000058,-
 0.00000014,-0.00000007,-0.00000065,-0.00000007,0.00000630,-0.00000232,
 -0.00000069,-0.00001907,0.00000262,-0.00002010,-0.00005036,0.00006942,
 0.00003096,0.00000069,-0.00000191,-0.00000079,-0.00000202,-0.00000020,
 -0.00000009,0.00066180,-0.00027642,0.00107098,-0.00001529,0.00000239,0
 .00000207,-0.00011548,-0.00024262,-0.00072437,0.00642548,-0.00543220,0
 .00517511,0.00000121,0.00000052,0.00000119,-0.00000111,0.00000043,-0.0
 0000054,-0.00000060,-0.00000027,0.00000041,0.00000026,0.00000046,0.000
 00039,-0.00000077,0.00000053,0.00000017,0.00002593,0.00061917,0.000400
 23,0.00024369,-0.00029434,0.00035392,-0.00000795,-0.00004059,0.0000056
 8,-0.00001682,-0.00004193,-0.00004825,-0.02664805,-0.22757191,0.106743
 69,-0.00856066,-0.02675212,0.00606543,-0.00277203,0.00111084,0.0053406
 5,0.03084703,0.25883686,0.00000117,-0.00000081,-0.00000276,0.00000055,
 -0.00000014,0.00000029,-0.00000082,-0.00000015,-0.00000655,0.00000325,
 0.00000028,0.00000483,-0.00002259,-0.00000480,-0.00001581,0.00000751,0
 .00000815,0.00005827,0.00000683,-0.00000916,-0.00003514,-0.00000380,0.
 00000869,-0.00001993,0.00000324,-0.00000077,0.00000007,0.00000002,0.00
 000008,0.00000072,-0.00000036,0.00000035,-0.00000002,0.00000087,0.0000
 0055,0.00000025,0.00001140,-0.00000250,0.00000300,0.00000735,-0.000002
 58,0.00001021,-0.00000459,-0.00003562,-0.00009881,0.00000029,-0.000001
 07,0.00000207,-0.00000142,0.00000038,-0.00000111,0.00028898,0.00006349
 ,0.00083334,-0.00000180,0.00000148,-0.00000101,-0.00015199,0.00015598,
 -0.00039382,-0.00436078,0.00751323,-0.00131244,-0.00000725,0.00000545,
 0.00000458,-0.00000005,-0.00000027,0.00000048,-0.00000043,0.00000004,-
 0.00000038,-0.00000040,-0.00000023,0.00000050,-0.00000059,-0.00000011,
 0.00000110,-0.00051067,0.00043021,-0.00051409,-0.00028630,-0.00031678,
 -0.00026436,0.00001174,0.00002275,-0.00006338,0.00002486,-0.00000697,0
 .00003979,0.01587607,0.10687490,-0.10161188,-0.00301473,-0.01132785,0.
 00853082,0.00943690,0.02102372,-0.01715086,-0.01731250,-0.12439958,0.1
 1200311\\-0.00000270,0.00000212,-0.00000153,-0.00000213,-0.00000124,0.
 00000141,-0.00000401,0.00000207,-0.00000149,0.00000449,-0.00001102,0.0
 0000615,-0.00000431,-0.00000342,-0.00000142,0.00000017,-0.00000198,0.0
 0000614,0.00000057,-0.00000077,-0.00000083,0.00000099,0.00000434,-0.00
 000256,-0.00000245,-0.00000178,-0.00000114,-0.00000002,-0.00000032,-0.
 00000048,0.00000228,0.00000218,-0.00000057,0.00000212,0.00000126,-0.00
 000060,0.00000216,0.00000217,0.00000006,0.00000047,0.00000058,0.000001
 63,0.00000409,0.00000023,0.00000013,0.00000043,0.00000117,0.00000068,0
 .00000033,0.00000041,0.00000110,-0.00000665,0.00000145,-0.00000240,-0.
 00000063,-0.00000019,-0.00000119,0.00000127,-0.00000077,0.00000120,0.0
 0000425,0.00000020,0.00000431,0.00000224,0.00000160,-0.00000371,-0.000
 00097,0.00000043,-0.00000016,0.00000063,0.00000101,0.00000032,0.000000
 40,0.00000181,-0.00000070,-0.00000085,0.00000064,-0.00000076,0.0000017
 7,-0.00000555,-0.00000454,-0.00000116,0.00000161,0.00000098,-0.0000016
 0,0.00000112,0.00000052,-0.00000238,0.00000135,0.00000031,0.00000257,0
 .00000117,-0.00000068,-0.00000082,-0.00000030,-0.00000016,-0.00000062,
 -0.00000086,0.00000003,0.00000009,-0.00000071,-0.00000004\\\@


 IF NO USE IS MADE OF THE LABOR OF PAST AGES,
 THE WORLD MUST REMAIN ALWAYS IN THE INFANCY OF KNOWLEDGE.

                          -- CICERO
 Job cpu time:  0 days  0 hours  0 minutes 24.7 seconds.
 File lengths (MBytes):  RWF=     13 Int=      0 D2E=      0 Chk=      6 Scr=      1
 Normal termination of Gaussian 03 at Sun Dec 16 16:02:01 2012.
