 Entering Gaussian System, Link 0=g03
 Input=produkt.com
 Output=produkt.log
 Initial command:
 /software/ncbr/softrepo/secret/gaussian/03.E1/x86_64/node/l1.exe /scratch/xdanek7/QM/02_QM_optimalizace/produkt/Gau-11906.inp -scrdir=/scratch/xdanek7/QM/02_QM_optimalizace/produkt/
 Entering Link 1 = /software/ncbr/softrepo/secret/gaussian/03.E1/x86_64/node/l1.exe PID=     11908.
  
 Copyright (c) 1988,1990,1992,1993,1995,1998,2003,2004,2007, Gaussian, Inc.
                  All Rights Reserved.
  
 This is the Gaussian(R) 03 program.  It is based on the
 the Gaussian(R) 98 system (copyright 1998, Gaussian, Inc.),
 the Gaussian(R) 94 system (copyright 1995, Gaussian, Inc.),
 the Gaussian 92(TM) system (copyright 1992, Gaussian, Inc.),
 the Gaussian 90(TM) system (copyright 1990, Gaussian, Inc.),
 the Gaussian 88(TM) system (copyright 1988, Gaussian, Inc.),
 the Gaussian 86(TM) system (copyright 1986, Carnegie Mellon
 University), and the Gaussian 82(TM) system (copyright 1983,
 Carnegie Mellon University). Gaussian is a federally registered
 trademark of Gaussian, Inc.
  
 This software contains proprietary and confidential information,
 including trade secrets, belonging to Gaussian, Inc.
  
 This software is provided under written license and may be
 used, copied, transmitted, or stored only in accord with that
 written license.
  
 The following legend is applicable only to US Government
 contracts under FAR:
  
                    RESTRICTED RIGHTS LEGEND
  
 Use, reproduction and disclosure by the US Government is
 subject to restrictions as set forth in subparagraphs (a)
 and (c) of the Commercial Computer Software - Restricted
 Rights clause in FAR 52.227-19.
  
 Gaussian, Inc.
 340 Quinnipiac St., Bldg. 40, Wallingford CT 06492
  
  
 ---------------------------------------------------------------
 Warning -- This program may not be used in any manner that
 competes with the business of Gaussian, Inc. or will provide
 assistance to any competitor of Gaussian, Inc.  The licensee
 of this program is prohibited from giving any competitor of
 Gaussian, Inc. access to this program.  By using this program,
 the user acknowledges that Gaussian, Inc. is engaged in the
 business of creating and licensing software in the field of
 computational chemistry and represents and warrants to the
 licensee that it is not a competitor of Gaussian, Inc. and that
 it will not use this program in any manner prohibited above.
 ---------------------------------------------------------------
  

 Cite this work as:
 Gaussian 03, Revision E.01,
 M. J. Frisch, G. W. Trucks, H. B. Schlegel, G. E. Scuseria, 
 M. A. Robb, J. R. Cheeseman, J. A. Montgomery, Jr., T. Vreven, 
 K. N. Kudin, J. C. Burant, J. M. Millam, S. S. Iyengar, J. Tomasi, 
 V. Barone, B. Mennucci, M. Cossi, G. Scalmani, N. Rega, 
 G. A. Petersson, H. Nakatsuji, M. Hada, M. Ehara, K. Toyota, 
 R. Fukuda, J. Hasegawa, M. Ishida, T. Nakajima, Y. Honda, O. Kitao, 
 H. Nakai, M. Klene, X. Li, J. E. Knox, H. P. Hratchian, J. B. Cross, 
 V. Bakken, C. Adamo, J. Jaramillo, R. Gomperts, R. E. Stratmann, 
 O. Yazyev, A. J. Austin, R. Cammi, C. Pomelli, J. W. Ochterski, 
 P. Y. Ayala, K. Morokuma, G. A. Voth, P. Salvador, J. J. Dannenberg, 
 V. G. Zakrzewski, S. Dapprich, A. D. Daniels, M. C. Strain, 
 O. Farkas, D. K. Malick, A. D. Rabuck, K. Raghavachari, 
 J. B. Foresman, J. V. Ortiz, Q. Cui, A. G. Baboul, S. Clifford, 
 J. Cioslowski, B. B. Stefanov, G. Liu, A. Liashenko, P. Piskorz, 
 I. Komaromi, R. L. Martin, D. J. Fox, T. Keith, M. A. Al-Laham, 
 C. Y. Peng, A. Nanayakkara, M. Challacombe, P. M. W. Gill, 
 B. Johnson, W. Chen, M. W. Wong, C. Gonzalez, and J. A. Pople, 
 Gaussian, Inc., Wallingford CT, 2004.
 
 ******************************************
 Gaussian 03:  EM64L-G03RevE.01 11-Sep-2007
                16-Dec-2012 
 ******************************************
 ----------------
 # PM3 Opt NoSymm
 ----------------
 1/14=-1,18=50,26=3,38=1/1,3;
 2/9=110,15=1,17=6,18=5,40=1/2;
 3/5=2,11=9,12=1,16=1,25=1,30=1/1;
 4/5=3,11=1,20=7,22=1,24=3,35=1/1,2;
 6/7=2,8=2,9=2,10=2/1;
 7/30=1/16;
 1/14=-1,18=50/3(3);
 2/9=110,15=1/2;
 6/7=2,8=2,9=2,10=2/1;
 99//99;
 2/9=110,15=1/2;
 3/5=2,11=9,12=1,16=1,25=1,30=1/1;
 4/5=5,11=1,16=3,20=7,22=1,24=3,35=1/1,2;
 7/30=1/16;
 1/14=-1,18=50/3(-4);
 2/9=110,15=1/2;
 6/7=2,8=2,9=2,10=2/1;
 99//99;
 -------
 produkt
 -------
 Symbolic Z-matrix:
 Charge =  0 Multiplicity = 1
 C                    -1.63823   3.8913   -0.18065 
 C                    -2.99137   3.27491  -0.17664 
 C                    -3.17614   1.95129  -0.26974 
 C                    -2.06672   0.90352  -0.3619 
 N                    -2.57465  -0.15023   0.50587 
 C                    -1.90854  -1.26195   0.89997 
 O                    -0.82317  -1.31566   1.43404 
 O                    -2.64644  -2.3339    0.50378 
 C                    -1.9568   -3.58639   0.53726 
 H                    -1.41496  -3.73169   1.47516 
 H                    -1.27294  -3.64826  -0.31612 
 H                    -2.69669  -4.3846    0.43029 
 H                    -3.4869   -0.46219   0.19991 
 C                    -0.59375   2.92334   0.35205 
 C                    -0.63416   1.51883  -0.31304 
 H                    -0.71543   2.82248   1.43834 
 H                     0.39443   3.37748   0.19148 
 C                     0.62028   0.77755   0.19264 
 H                    -0.39609   1.72998  -1.37 
 O                     1.15294   1.10919   1.25839 
 N                     1.29637  -0.0673   -0.69875 
 H                    -2.15687   0.46542  -1.36667 
 H                    -1.63842   4.79403   0.44109 
 H                    -1.39673   4.20589  -1.20282 
 H                    -3.84661   3.9403   -0.08109 
 H                    -4.20618   1.599    -0.24195 
 C                     0.62091  -1.15764  -1.37289 
 H                    -0.07206  -1.64897  -0.70253 
 H                     1.34133  -1.91872  -1.69136 
 H                     0.07785  -0.77955  -2.23874 
 C                     2.70024  -0.294    -0.39061 
 H                     3.18664   0.66715  -0.18929 
 H                     3.20069  -0.75146  -1.2494 
 H                     2.79175  -0.93509   0.49036 
 

 GradGradGradGradGradGradGradGradGradGradGradGradGradGradGradGradGradGrad
 Berny optimization.
 Initialization pass.
                           ----------------------------
                           !    Initial Parameters    !
                           ! (Angstroms and Degrees)  !
 --------------------------                            --------------------------
 ! Name  Definition              Value          Derivative Info.                !
 --------------------------------------------------------------------------------
 ! R1    R(1,2)                  1.4869         estimate D2E/DX2                !
 ! R2    R(1,14)                 1.5204         estimate D2E/DX2                !
 ! R3    R(1,23)                 1.0961         estimate D2E/DX2                !
 ! R4    R(1,24)                 1.0964         estimate D2E/DX2                !
 ! R5    R(2,3)                  1.3397         estimate D2E/DX2                !
 ! R6    R(2,25)                 1.0878         estimate D2E/DX2                !
 ! R7    R(3,4)                  1.5288         estimate D2E/DX2                !
 ! R8    R(3,26)                 1.089          estimate D2E/DX2                !
 ! R9    R(4,5)                  1.4565         estimate D2E/DX2                !
 ! R10   R(4,15)                 1.5599         estimate D2E/DX2                !
 ! R11   R(4,22)                 1.0998         estimate D2E/DX2                !
 ! R12   R(5,6)                  1.3546         estimate D2E/DX2                !
 ! R13   R(5,13)                 1.0115         estimate D2E/DX2                !
 ! R14   R(6,7)                  1.2108         estimate D2E/DX2                !
 ! R15   R(6,8)                  1.3603         estimate D2E/DX2                !
 ! R16   R(8,9)                  1.4302         estimate D2E/DX2                !
 ! R17   R(9,10)                 1.0929         estimate D2E/DX2                !
 ! R18   R(9,11)                 1.0953         estimate D2E/DX2                !
 ! R19   R(9,12)                 1.0936         estimate D2E/DX2                !
 ! R20   R(14,15)                1.5546         estimate D2E/DX2                !
 ! R21   R(14,16)                1.0977         estimate D2E/DX2                !
 ! R22   R(14,17)                1.0993         estimate D2E/DX2                !
 ! R23   R(15,18)                1.5423         estimate D2E/DX2                !
 ! R24   R(15,19)                1.1038         estimate D2E/DX2                !
 ! R25   R(18,20)                1.2367         estimate D2E/DX2                !
 ! R26   R(18,21)                1.4019         estimate D2E/DX2                !
 ! R27   R(21,27)                1.449          estimate D2E/DX2                !
 ! R28   R(21,31)                1.4551         estimate D2E/DX2                !
 ! R29   R(27,28)                1.0821         estimate D2E/DX2                !
 ! R30   R(27,29)                1.0953         estimate D2E/DX2                !
 ! R31   R(27,30)                1.0898         estimate D2E/DX2                !
 ! R32   R(31,32)                1.0959         estimate D2E/DX2                !
 ! R33   R(31,33)                1.0942         estimate D2E/DX2                !
 ! R34   R(31,34)                1.0934         estimate D2E/DX2                !
 ! A1    A(2,1,14)             111.1188         estimate D2E/DX2                !
 ! A2    A(2,1,23)             109.8595         estimate D2E/DX2                !
 ! A3    A(2,1,24)             108.778          estimate D2E/DX2                !
 ! A4    A(14,1,23)            109.0082         estimate D2E/DX2                !
 ! A5    A(14,1,24)            110.9772         estimate D2E/DX2                !
 ! A6    A(23,1,24)            107.0103         estimate D2E/DX2                !
 ! A7    A(1,2,3)              122.3365         estimate D2E/DX2                !
 ! A8    A(1,2,25)             117.5254         estimate D2E/DX2                !
 ! A9    A(3,2,25)             120.1334         estimate D2E/DX2                !
 ! A10   A(2,3,4)              125.5384         estimate D2E/DX2                !
 ! A11   A(2,3,26)             116.6351         estimate D2E/DX2                !
 ! A12   A(4,3,26)             117.7905         estimate D2E/DX2                !
 ! A13   A(3,4,5)              101.9384         estimate D2E/DX2                !
 ! A14   A(3,4,15)             113.2176         estimate D2E/DX2                !
 ! A15   A(3,4,22)             105.5808         estimate D2E/DX2                !
 ! A16   A(5,4,15)             125.9437         estimate D2E/DX2                !
 ! A17   A(5,4,22)             103.1513         estimate D2E/DX2                !
 ! A18   A(15,4,22)            105.1306         estimate D2E/DX2                !
 ! A19   A(4,5,6)              126.5561         estimate D2E/DX2                !
 ! A20   A(4,5,13)             110.9424         estimate D2E/DX2                !
 ! A21   A(6,5,13)             106.1634         estimate D2E/DX2                !
 ! A22   A(5,6,7)              127.2656         estimate D2E/DX2                !
 ! A23   A(5,6,8)              107.172          estimate D2E/DX2                !
 ! A24   A(7,6,8)              125.4316         estimate D2E/DX2                !
 ! A25   A(6,8,9)              114.9424         estimate D2E/DX2                !
 ! A26   A(8,9,10)             112.0612         estimate D2E/DX2                !
 ! A27   A(8,9,11)             109.4076         estimate D2E/DX2                !
 ! A28   A(8,9,12)             108.0993         estimate D2E/DX2                !
 ! A29   A(10,9,11)            110.5836         estimate D2E/DX2                !
 ! A30   A(10,9,12)            108.8041         estimate D2E/DX2                !
 ! A31   A(11,9,12)            107.7559         estimate D2E/DX2                !
 ! A32   A(1,14,15)            114.0441         estimate D2E/DX2                !
 ! A33   A(1,14,16)            109.2118         estimate D2E/DX2                !
 ! A34   A(1,14,17)            107.6582         estimate D2E/DX2                !
 ! A35   A(15,14,16)           109.7236         estimate D2E/DX2                !
 ! A36   A(15,14,17)           109.5185         estimate D2E/DX2                !
 ! A37   A(16,14,17)           106.3877         estimate D2E/DX2                !
 ! A38   A(4,15,14)            113.1826         estimate D2E/DX2                !
 ! A39   A(4,15,18)            124.5853         estimate D2E/DX2                !
 ! A40   A(4,15,19)            104.0954         estimate D2E/DX2                !
 ! A41   A(14,15,18)           105.832          estimate D2E/DX2                !
 ! A42   A(14,15,19)           103.3699         estimate D2E/DX2                !
 ! A43   A(18,15,19)           103.3244         estimate D2E/DX2                !
 ! A44   A(15,18,20)           120.2618         estimate D2E/DX2                !
 ! A45   A(15,18,21)           118.2553         estimate D2E/DX2                !
 ! A46   A(20,18,21)           120.1198         estimate D2E/DX2                !
 ! A47   A(18,21,27)           121.6332         estimate D2E/DX2                !
 ! A48   A(18,21,31)           115.1207         estimate D2E/DX2                !
 ! A49   A(27,21,31)           115.5342         estimate D2E/DX2                !
 ! A50   A(21,27,28)           110.6075         estimate D2E/DX2                !
 ! A51   A(21,27,29)           110.5815         estimate D2E/DX2                !
 ! A52   A(21,27,30)           109.9309         estimate D2E/DX2                !
 ! A53   A(28,27,29)           106.6084         estimate D2E/DX2                !
 ! A54   A(28,27,30)           109.3059         estimate D2E/DX2                !
 ! A55   A(29,27,30)           109.745          estimate D2E/DX2                !
 ! A56   A(21,31,32)           109.2986         estimate D2E/DX2                !
 ! A57   A(21,31,33)           109.8895         estimate D2E/DX2                !
 ! A58   A(21,31,34)           110.0435         estimate D2E/DX2                !
 ! A59   A(32,31,33)           107.9309         estimate D2E/DX2                !
 ! A60   A(32,31,34)           109.2136         estimate D2E/DX2                !
 ! A61   A(33,31,34)           110.4246         estimate D2E/DX2                !
 ! D1    D(14,1,2,3)           -26.9414         estimate D2E/DX2                !
 ! D2    D(14,1,2,25)          152.271          estimate D2E/DX2                !
 ! D3    D(23,1,2,3)          -147.6547         estimate D2E/DX2                !
 ! D4    D(2,1,14,15)           50.3287         estimate D2E/DX2                !
 ! D5    D(2,1,14,16)          -72.8199         estimate D2E/DX2                !
 ! D6    D(23,1,14,15)         171.5426         estimate D2E/DX2                !
 ! D7    D(1,2,3,4)              1.307          estimate D2E/DX2                !
 ! D8    D(1,2,3,26)           179.0672         estimate D2E/DX2                !
 ! D9    D(25,2,3,4)          -177.8854         estimate D2E/DX2                !
 ! D10   D(2,3,4,5)            139.0451         estimate D2E/DX2                !
 ! D11   D(2,3,4,15)             1.0117         estimate D2E/DX2                !
 ! D12   D(26,3,4,5)           -38.6917         estimate D2E/DX2                !
 ! D13   D(3,4,5,6)           -172.1793         estimate D2E/DX2                !
 ! D14   D(3,4,5,13)            56.9134         estimate D2E/DX2                !
 ! D15   D(15,4,5,6)           -41.5619         estimate D2E/DX2                !
 ! D16   D(3,4,15,14)           22.3512         estimate D2E/DX2                !
 ! D17   D(3,4,15,18)          153.3274         estimate D2E/DX2                !
 ! D18   D(5,4,15,14)         -103.7381         estimate D2E/DX2                !
 ! D19   D(4,5,6,7)             53.7106         estimate D2E/DX2                !
 ! D20   D(4,5,6,8)           -122.2823         estimate D2E/DX2                !
 ! D21   D(13,5,6,7)          -173.5876         estimate D2E/DX2                !
 ! D22   D(5,6,8,9)            165.3504         estimate D2E/DX2                !
 ! D23   D(7,6,8,9)            -10.7359         estimate D2E/DX2                !
 ! D24   D(6,8,9,10)            47.0564         estimate D2E/DX2                !
 ! D25   D(6,8,9,11)           -75.9669         estimate D2E/DX2                !
 ! D26   D(1,14,15,4)          -48.9655         estimate D2E/DX2                !
 ! D27   D(1,14,15,18)         171.2805         estimate D2E/DX2                !
 ! D28   D(16,14,15,4)          73.9046         estimate D2E/DX2                !
 ! D29   D(4,15,18,20)        -109.9179         estimate D2E/DX2                !
 ! D30   D(4,15,18,21)          83.3916         estimate D2E/DX2                !
 ! D31   D(14,15,18,20)         23.913          estimate D2E/DX2                !
 ! D32   D(15,18,21,27)        -56.0982         estimate D2E/DX2                !
 ! D33   D(15,18,21,31)        155.9084         estimate D2E/DX2                !
 ! D34   D(20,18,21,27)        137.1918         estimate D2E/DX2                !
 ! D35   D(18,21,27,28)        -39.6415         estimate D2E/DX2                !
 ! D36   D(18,21,27,29)       -157.5063         estimate D2E/DX2                !
 ! D37   D(31,21,27,28)        108.2294         estimate D2E/DX2                !
 ! D38   D(18,21,31,32)        -48.0172         estimate D2E/DX2                !
 ! D39   D(18,21,31,33)       -166.284          estimate D2E/DX2                !
 ! D40   D(27,21,31,32)        161.9904         estimate D2E/DX2                !
 --------------------------------------------------------------------------------
 Trust Radius=3.00D-01 FncErr=1.00D-07 GrdErr=1.00D-06
 Number of steps in this run= 145 maximum allowed number of steps= 204.
 GradGradGradGradGradGradGradGradGradGradGradGradGradGradGradGradGradGrad

                          Input orientation:                          
 ---------------------------------------------------------------------
 Center     Atomic     Atomic              Coordinates (Angstroms)
 Number     Number      Type              X           Y           Z
 ---------------------------------------------------------------------
    1          6             0       -1.638230    3.891300   -0.180650
    2          6             0       -2.991370    3.274910   -0.176640
    3          6             0       -3.176140    1.951290   -0.269740
    4          6             0       -2.066720    0.903520   -0.361900
    5          7             0       -2.574650   -0.150230    0.505870
    6          6             0       -1.908540   -1.261950    0.899970
    7          8             0       -0.823170   -1.315660    1.434040
    8          8             0       -2.646440   -2.333900    0.503780
    9          6             0       -1.956800   -3.586390    0.537260
   10          1             0       -1.414960   -3.731690    1.475160
   11          1             0       -1.272940   -3.648260   -0.316120
   12          1             0       -2.696690   -4.384600    0.430290
   13          1             0       -3.486900   -0.462190    0.199910
   14          6             0       -0.593750    2.923340    0.352050
   15          6             0       -0.634160    1.518830   -0.313040
   16          1             0       -0.715430    2.822480    1.438340
   17          1             0        0.394430    3.377480    0.191480
   18          6             0        0.620280    0.777550    0.192640
   19          1             0       -0.396090    1.729980   -1.370000
   20          8             0        1.152940    1.109190    1.258390
   21          7             0        1.296370   -0.067300   -0.698750
   22          1             0       -2.156870    0.465420   -1.366670
   23          1             0       -1.638420    4.794030    0.441090
   24          1             0       -1.396730    4.205890   -1.202820
   25          1             0       -3.846610    3.940300   -0.081090
   26          1             0       -4.206180    1.599000   -0.241950
   27          6             0        0.620910   -1.157640   -1.372890
   28          1             0       -0.072060   -1.648970   -0.702530
   29          1             0        1.341330   -1.918720   -1.691360
   30          1             0        0.077850   -0.779550   -2.238740
   31          6             0        2.700240   -0.294000   -0.390610
   32          1             0        3.186640    0.667150   -0.189290
   33          1             0        3.200690   -0.751460   -1.249400
   34          1             0        2.791750   -0.935090    0.490360
 ---------------------------------------------------------------------
                    Distance matrix (angstroms):
                    1          2          3          4          5
     1  C    0.000000
     2  C    1.486923   0.000000
     3  C    2.477245   1.339693   0.000000
     4  C    3.023786   2.552017   1.528767   0.000000
     5  N    4.205016   3.517252   2.319428   1.456505   0.000000
     6  C    5.272266   4.786931   3.646909   2.511294   1.354599
     7  O    5.512166   5.326229   4.371761   3.113933   2.299437
     8  O    6.343347   5.660450   4.386544   3.400936   2.184851
     9  C    7.518825   6.975488   5.727472   4.580378   3.491407
    10  H    7.803943   7.369257   6.200217   5.028395   3.887320
    11  H    7.549619   7.134616   5.914328   4.620702   3.821823
    12  H    8.365650   7.689167   6.392450   5.384110   4.236802
    13  H    4.745027   3.788569   2.478312   2.048830   1.011499
    14  C    1.520413   2.480261   2.828470   2.599815   3.659844
    15  C    2.579593   2.942594   2.578868   1.559879   2.687355
    16  H    2.148270   2.827146   3.119552   2.957914   3.628113
    17  H    2.129366   3.407297   3.872430   3.533266   4.621581
    18  C    3.864667   4.406494   4.000533   2.746516   3.341626
    19  H    2.762023   3.247521   2.998037   2.119034   3.435142
    20  O    4.195426   4.891315   4.667467   3.610242   4.005915
    21  N    4.954878   5.461472   4.925657   3.516580   4.054970
    22  H    3.662279   3.163194   2.109497   1.099828   2.014937
    23  H    1.096121   2.125980   3.309234   3.995535   5.032537
    24  H    1.096413   2.112498   3.019960   3.472993   4.825236
    25  H    2.211166   1.087800   2.107434   3.531132   4.323753
    26  H    3.442784   2.070918   1.088973   2.252858   2.506178
    27  C    5.658352   5.841839   5.029908   3.534662   3.841382
    28  H    5.780989   5.748350   4.773310   3.257285   3.157437
    29  H    6.701966   6.931122   6.116005   4.620315   4.826000
    30  H    5.384933   5.487350   4.682190   3.309748   3.868421
    31  C    6.031844   6.721408   6.291882   4.915159   5.352458
    32  H    5.802981   6.705847   6.491568   5.261507   5.860360
    33  H    6.790625   7.463516   6.994895   5.592157   6.066053
    34  H    6.585516   7.184251   6.672680   5.264177   5.423513
                    6          7          8          9         10
     6  C    0.000000
     7  O    1.210844   0.000000
     8  O    1.360345   2.286156   0.000000
     9  C    2.353064   2.691755   1.430194   0.000000
    10  H    2.583424   2.487792   2.100938   1.092867   0.000000
    11  H    2.752696   2.950657   2.070333   1.095331   1.798837
    12  H    3.254646   3.733093   2.052632   1.093627   1.777885
    13  H    1.902872   3.057277   2.074128   3.495088   4.075393
    14  C    4.421034   4.380920   5.645806   6.653480   6.798911
    15  C    3.290619   3.335018   4.422668   5.341878   5.601363
    16  H    4.289047   4.139545   5.584842   6.589883   6.591498
    17  H    5.227804   5.005204   6.477984   7.358215   7.447283
    18  C    3.324877   2.829514   4.522100   5.079771   5.110803
    19  H    4.048693   4.161846   5.009017   5.859799   6.242025
    20  O    3.888885   3.133012   5.182624   5.677938   5.484088
    21  N    3.775519   3.255710   4.704179   4.949225   5.050242
    22  H    2.860617   3.577007   3.402125   4.481310   5.122710
    23  H    6.079344   6.243308   7.199126   8.387017   8.591108
    24  H    5.880557   6.145691   6.873362   8.003823   8.377176
    25  H    5.637553   6.249954   6.414676   7.784909   8.197211
    26  H    3.842937   4.769585   4.296115   5.705712   6.257446
    27  C    3.402189   3.160569   3.947284   4.023939   4.345330
    28  H    2.467884   2.289147   2.924337   2.973705   3.299005
    29  H    4.208087   3.849268   4.570922   4.315731   4.572838
    30  H    3.745658   3.819498   4.166434   4.441208   4.973597
    31  C    4.882968   4.097262   5.792073   5.778304   5.677471
    32  H    5.555967   4.758709   6.596322   6.713825   6.579887
    33  H    5.566383   4.869355   6.306083   6.150503   6.132636
    34  H    4.729413   3.755398   5.615226   5.438779   5.146573
                   11         12         13         14         15
    11  H    0.000000
    12  H    1.768160   0.000000
    13  H    3.913943   4.007843   0.000000
    14  C    6.640307   7.604897   4.455926   0.000000
    15  C    5.206426   6.297385   3.510795   1.554550   0.000000
    16  H    6.727512   7.542119   4.472562   1.097727   2.184820
    17  H    7.238702   8.358345   5.459657   1.099330   2.183373
    18  C    4.840549   6.140567   4.290214   2.470566   1.542345
    19  H    5.550225   6.776569   4.101626   2.104432   1.103823
    20  O    5.567522   6.759225   5.011759   2.676475   2.414731
    21  N    4.423916   5.988183   4.882950   3.690618   2.528147
    22  H    4.336744   5.200304   2.254687   3.382117   2.130365
    23  H    8.484056   9.239443   5.576997   2.144468   3.507732
    24  H    7.905013   8.840445   5.303530   2.169639   2.931469
    25  H    8.016562   8.419488   4.426090   3.435537   4.029535
    26  H    6.011916   6.207571   2.227355   3.893117   3.573627
    27  C    3.302517   4.967011   4.453252   4.594041   3.140378
    28  H    2.364019   3.956720   3.726121   4.721262   3.240774
    29  H    3.423011   5.185322   5.386111   5.600500   4.197508
    30  H    3.708180   5.274294   4.330724   4.568877   3.081855
    31  C    5.200266   6.821564   6.217532   4.664032   3.796129
    32  H    6.206988   7.779308   6.779603   4.435627   3.916527
    33  H    5.410714   7.127423   6.848944   5.519653   4.553796
    34  H    4.953121   6.482723   6.303129   5.135000   4.289992
                   16         17         18         19         20
    16  H    0.000000
    17  H    1.759112   0.000000
    18  C    2.741829   2.609721   0.000000
    19  H    3.030232   2.403622   2.093317   0.000000
    20  O    2.541368   2.618926   1.236744   3.113408   0.000000
    21  N    4.118898   3.670492   1.401943   2.558361   2.288034
    22  H    3.937202   4.173375   3.200224   2.167826   4.273198
    23  H    2.394458   2.490261   4.614712   3.769859   4.694435
    24  H    3.058385   2.416317   4.215347   2.675698   4.706158
    25  H    3.655472   4.286896   5.480057   4.295683   5.899567
    26  H    4.062710   4.951410   4.915116   3.975731   5.586690
    27  C    5.052739   4.802693   2.489145   3.061478   3.513575
    28  H    4.999111   5.126604   2.677436   3.459453   3.599066
    29  H    6.041876   5.700126   3.367379   4.054000   4.231401
    30  H    5.208150   4.825670   2.937754   2.697604   4.117411
    31  C    4.972354   4.374398   2.411355   3.826612   2.661255
    32  H    4.745606   3.909899   2.596972   3.919137   2.535175
    33  H    5.944156   5.196092   3.328042   4.371375   3.734208
    34  H    5.226692   4.943150   2.781556   4.552566   2.730320
                   21         22         23         24         25
    21  N    0.000000
    22  H    3.557355   0.000000
    23  H    5.791784   4.719497   0.000000
    24  H    5.076123   3.820442   1.762601   0.000000
    25  H    6.549245   4.072190   2.424382   2.707532   0.000000
    26  H    5.767433   2.598013   4.155497   3.951222   2.374206
    27  C    1.448983   3.217208   6.619477   5.732997   6.900469
    28  H    2.091482   3.042722   6.728566   6.023656   6.772987
    29  H    2.101203   4.245816   7.647697   6.726551   7.989731
    30  H    2.088938   2.702671   6.418089   5.301144   6.506445
    31  C    1.455058   5.012078   6.738230   6.139532   7.802970
    32  H    2.090954   5.475401   6.380417   5.878538   7.758339
    33  H    2.097075   5.495271   7.551636   6.761195   8.546461
    34  H    2.098381   5.467982   7.242351   6.843968   8.256137
                   26         27         28         29         30
    26  H    0.000000
    27  C    5.672644   0.000000
    28  H    5.277536   1.082125   0.000000
    29  H    6.726813   1.095295   1.745916   0.000000
    30  H    5.291274   1.089753   1.771526   1.787097   0.000000
    31  C    7.162694   2.456494   3.101433   2.485619   3.244730
    32  H    7.451504   3.363590   4.030751   3.513987   3.994717
    33  H    7.835901   2.614478   3.437366   2.239429   3.275929
    34  H    7.478564   2.869456   3.183397   2.798419   3.851939
                   31         32         33         34
    31  C    0.000000
    32  H    1.095867   0.000000
    33  H    1.094185   1.771012   0.000000
    34  H    1.093379   1.784667   1.796585   0.000000
 Symmetry turned off by external request.
 Stoichiometry    C11H18N2O3
 Framework group  C1[X(C11H18N2O3)]
 Deg. of freedom    96
 Full point group                 C1
 Rotational constants (GHZ):      0.6238952      0.4685730      0.3071547
 Standard basis: VSTO-3G (5D, 7F)
 Integral buffers will be    131072 words long.
 Raffenetti 1 integral format.
 Two-electron integral symmetry is turned off.
    82 basis functions,   246 primitive gaussians,    82 cartesian basis functions
    45 alpha electrons       45 beta electrons
       nuclear repulsion energy       648.5049295393 Hartrees.
 NAtoms=   34 NActive=   34 NUniq=   34 SFac= 7.50D-01 NAtFMM=   80 NAOKFM=F Big=F
 Simple Huckel Guess.
 RHF-PM3 calculation of energy and first derivatives.
 MO and density RWFs will be updated without deorthogonalization.
 Closed-shell calculation:      45 occupied levels.
 NNHCO=    0.
 References:
  H: (PM3): J. J. P. STEWART, J. COMP. CHEM.     10, 209 (1989).
  C: (PM3): J. J. P. STEWART, J. COMP. CHEM.     10, 209 (1989).
  N: (PM3): J. J. P. STEWART, J. COMP. CHEM.     10, 209 (1989).
  O: (PM3): J. J. P. STEWART, J. COMP. CHEM.     10, 209 (1989).
 Ext34=T Pulay=F Camp-King=F BShift= 0.00D+00
 It=  1 PL= 0.103D+01 DiagD=T ESCF=     20.099571 Diff= 0.158D+02 RMSDP= 0.164D+00.
 It=  2 PL= 0.953D-01 DiagD=T ESCF=     -1.721944 Diff=-0.218D+02 RMSDP= 0.567D-02.
 It=  3 PL= 0.462D-01 DiagD=F ESCF=     -3.291361 Diff=-0.157D+01 RMSDP= 0.336D-02.
 It=  4 PL= 0.905D-02 DiagD=F ESCF=     -3.663697 Diff=-0.372D+00 RMSDP= 0.537D-03.
 It=  5 PL= 0.398D-02 DiagD=F ESCF=     -3.553491 Diff= 0.110D+00 RMSDP= 0.285D-03.
 It=  6 PL= 0.208D-02 DiagD=F ESCF=     -3.556280 Diff=-0.279D-02 RMSDP= 0.379D-03.
 It=  7 PL= 0.213D-03 DiagD=F ESCF=     -3.559405 Diff=-0.313D-02 RMSDP= 0.249D-04.
 It=  8 PL= 0.129D-03 DiagD=F ESCF=     -3.557700 Diff= 0.171D-02 RMSDP= 0.121D-04.
 It=  9 PL= 0.652D-04 DiagD=F ESCF=     -3.557705 Diff=-0.529D-05 RMSDP= 0.153D-04.
 It= 10 PL= 0.141D-04 DiagD=F ESCF=     -3.557711 Diff=-0.551D-05 RMSDP= 0.163D-05.
 It= 11 PL= 0.867D-05 DiagD=F ESCF=     -3.557708 Diff= 0.269D-05 RMSDP= 0.917D-06.
 It= 12 PL= 0.563D-05 DiagD=F ESCF=     -3.557708 Diff=-0.283D-07 RMSDP= 0.153D-05.
 It= 13 PL= 0.127D-05 DiagD=F ESCF=     -3.557708 Diff=-0.490D-07 RMSDP= 0.803D-07.
 Energy=   -0.130745928858 NIter=  14.
 Dipole moment=      -0.822191      -0.435949      -1.633781

 **********************************************************************

            Population analysis using the SCF density.

 **********************************************************************

 Alpha  occ. eigenvalues --   -1.53011  -1.46016  -1.37610  -1.32308  -1.25965
 Alpha  occ. eigenvalues --   -1.22064  -1.12499  -1.06899  -1.01578  -0.98255
 Alpha  occ. eigenvalues --   -0.90549  -0.84218  -0.80741  -0.75184  -0.70786
 Alpha  occ. eigenvalues --   -0.68507  -0.66546  -0.65280  -0.63963  -0.62192
 Alpha  occ. eigenvalues --   -0.61579  -0.60418  -0.58308  -0.57590  -0.57186
 Alpha  occ. eigenvalues --   -0.56450  -0.54688  -0.54008  -0.52498  -0.51650
 Alpha  occ. eigenvalues --   -0.50589  -0.50350  -0.50095  -0.48928  -0.47807
 Alpha  occ. eigenvalues --   -0.47145  -0.45888  -0.45183  -0.43181  -0.42973
 Alpha  occ. eigenvalues --   -0.41922  -0.38871  -0.37563  -0.36208  -0.33924
 Alpha virt. eigenvalues --    0.01654   0.03375   0.03936   0.06057   0.06422
 Alpha virt. eigenvalues --    0.09305   0.10191   0.10915   0.11510   0.12084
 Alpha virt. eigenvalues --    0.12208   0.13111   0.13276   0.13448   0.13619
 Alpha virt. eigenvalues --    0.14080   0.14199   0.14419   0.14472   0.14516
 Alpha virt. eigenvalues --    0.14858   0.15007   0.15532   0.15910   0.16069
 Alpha virt. eigenvalues --    0.16475   0.16620   0.17184   0.17708   0.18203
 Alpha virt. eigenvalues --    0.19502   0.19628   0.20104   0.21278   0.22300
 Alpha virt. eigenvalues --    0.26908   0.27081
          Condensed to atoms (all electrons):
              1          2          3          4          5          6
     1  C    4.068513   0.000000   0.000000   0.000000   0.000000   0.000000
     2  C    0.000000   4.108222   0.000000   0.000000   0.000000   0.000000
     3  C    0.000000   0.000000   4.188898   0.000000   0.000000   0.000000
     4  C    0.000000   0.000000   0.000000   3.944361   0.000000   0.000000
     5  N    0.000000   0.000000   0.000000   0.000000   5.010063   0.000000
     6  C    0.000000   0.000000   0.000000   0.000000   0.000000   3.657443
     7  O    0.000000   0.000000   0.000000   0.000000   0.000000   0.000000
     8  O    0.000000   0.000000   0.000000   0.000000   0.000000   0.000000
     9  C    0.000000   0.000000   0.000000   0.000000   0.000000   0.000000
    10  H    0.000000   0.000000   0.000000   0.000000   0.000000   0.000000
    11  H    0.000000   0.000000   0.000000   0.000000   0.000000   0.000000
    12  H    0.000000   0.000000   0.000000   0.000000   0.000000   0.000000
    13  H    0.000000   0.000000   0.000000   0.000000   0.000000   0.000000
    14  C    0.000000   0.000000   0.000000   0.000000   0.000000   0.000000
    15  C    0.000000   0.000000   0.000000   0.000000   0.000000   0.000000
    16  H    0.000000   0.000000   0.000000   0.000000   0.000000   0.000000
    17  H    0.000000   0.000000   0.000000   0.000000   0.000000   0.000000
    18  C    0.000000   0.000000   0.000000   0.000000   0.000000   0.000000
    19  H    0.000000   0.000000   0.000000   0.000000   0.000000   0.000000
    20  O    0.000000   0.000000   0.000000   0.000000   0.000000   0.000000
    21  N    0.000000   0.000000   0.000000   0.000000   0.000000   0.000000
    22  H    0.000000   0.000000   0.000000   0.000000   0.000000   0.000000
    23  H    0.000000   0.000000   0.000000   0.000000   0.000000   0.000000
    24  H    0.000000   0.000000   0.000000   0.000000   0.000000   0.000000
    25  H    0.000000   0.000000   0.000000   0.000000   0.000000   0.000000
    26  H    0.000000   0.000000   0.000000   0.000000   0.000000   0.000000
    27  C    0.000000   0.000000   0.000000   0.000000   0.000000   0.000000
    28  H    0.000000   0.000000   0.000000   0.000000   0.000000   0.000000
    29  H    0.000000   0.000000   0.000000   0.000000   0.000000   0.000000
    30  H    0.000000   0.000000   0.000000   0.000000   0.000000   0.000000
    31  C    0.000000   0.000000   0.000000   0.000000   0.000000   0.000000
    32  H    0.000000   0.000000   0.000000   0.000000   0.000000   0.000000
    33  H    0.000000   0.000000   0.000000   0.000000   0.000000   0.000000
    34  H    0.000000   0.000000   0.000000   0.000000   0.000000   0.000000
              7          8          9         10         11         12
     1  C    0.000000   0.000000   0.000000   0.000000   0.000000   0.000000
     2  C    0.000000   0.000000   0.000000   0.000000   0.000000   0.000000
     3  C    0.000000   0.000000   0.000000   0.000000   0.000000   0.000000
     4  C    0.000000   0.000000   0.000000   0.000000   0.000000   0.000000
     5  N    0.000000   0.000000   0.000000   0.000000   0.000000   0.000000
     6  C    0.000000   0.000000   0.000000   0.000000   0.000000   0.000000
     7  O    6.389083   0.000000   0.000000   0.000000   0.000000   0.000000
     8  O    0.000000   6.284717   0.000000   0.000000   0.000000   0.000000
     9  C    0.000000   0.000000   3.928198   0.000000   0.000000   0.000000
    10  H    0.000000   0.000000   0.000000   0.947074   0.000000   0.000000
    11  H    0.000000   0.000000   0.000000   0.000000   0.975395   0.000000
    12  H    0.000000   0.000000   0.000000   0.000000   0.000000   0.955973
    13  H    0.000000   0.000000   0.000000   0.000000   0.000000   0.000000
    14  C    0.000000   0.000000   0.000000   0.000000   0.000000   0.000000
    15  C    0.000000   0.000000   0.000000   0.000000   0.000000   0.000000
    16  H    0.000000   0.000000   0.000000   0.000000   0.000000   0.000000
    17  H    0.000000   0.000000   0.000000   0.000000   0.000000   0.000000
    18  C    0.000000   0.000000   0.000000   0.000000   0.000000   0.000000
    19  H    0.000000   0.000000   0.000000   0.000000   0.000000   0.000000
    20  O    0.000000   0.000000   0.000000   0.000000   0.000000   0.000000
    21  N    0.000000   0.000000   0.000000   0.000000   0.000000   0.000000
    22  H    0.000000   0.000000   0.000000   0.000000   0.000000   0.000000
    23  H    0.000000   0.000000   0.000000   0.000000   0.000000   0.000000
    24  H    0.000000   0.000000   0.000000   0.000000   0.000000   0.000000
    25  H    0.000000   0.000000   0.000000   0.000000   0.000000   0.000000
    26  H    0.000000   0.000000   0.000000   0.000000   0.000000   0.000000
    27  C    0.000000   0.000000   0.000000   0.000000   0.000000   0.000000
    28  H    0.000000   0.000000   0.000000   0.000000   0.000000   0.000000
    29  H    0.000000   0.000000   0.000000   0.000000   0.000000   0.000000
    30  H    0.000000   0.000000   0.000000   0.000000   0.000000   0.000000
    31  C    0.000000   0.000000   0.000000   0.000000   0.000000   0.000000
    32  H    0.000000   0.000000   0.000000   0.000000   0.000000   0.000000
    33  H    0.000000   0.000000   0.000000   0.000000   0.000000   0.000000
    34  H    0.000000   0.000000   0.000000   0.000000   0.000000   0.000000
             13         14         15         16         17         18
     1  C    0.000000   0.000000   0.000000   0.000000   0.000000   0.000000
     2  C    0.000000   0.000000   0.000000   0.000000   0.000000   0.000000
     3  C    0.000000   0.000000   0.000000   0.000000   0.000000   0.000000
     4  C    0.000000   0.000000   0.000000   0.000000   0.000000   0.000000
     5  N    0.000000   0.000000   0.000000   0.000000   0.000000   0.000000
     6  C    0.000000   0.000000   0.000000   0.000000   0.000000   0.000000
     7  O    0.000000   0.000000   0.000000   0.000000   0.000000   0.000000
     8  O    0.000000   0.000000   0.000000   0.000000   0.000000   0.000000
     9  C    0.000000   0.000000   0.000000   0.000000   0.000000   0.000000
    10  H    0.000000   0.000000   0.000000   0.000000   0.000000   0.000000
    11  H    0.000000   0.000000   0.000000   0.000000   0.000000   0.000000
    12  H    0.000000   0.000000   0.000000   0.000000   0.000000   0.000000
    13  H    0.918742   0.000000   0.000000   0.000000   0.000000   0.000000
    14  C    0.000000   4.100132   0.000000   0.000000   0.000000   0.000000
    15  C    0.000000   0.000000   4.080210   0.000000   0.000000   0.000000
    16  H    0.000000   0.000000   0.000000   0.917832   0.000000   0.000000
    17  H    0.000000   0.000000   0.000000   0.000000   0.937197   0.000000
    18  C    0.000000   0.000000   0.000000   0.000000   0.000000   3.735774
    19  H    0.000000   0.000000   0.000000   0.000000   0.000000   0.000000
    20  O    0.000000   0.000000   0.000000   0.000000   0.000000   0.000000
    21  N    0.000000   0.000000   0.000000   0.000000   0.000000   0.000000
    22  H    0.000000   0.000000   0.000000   0.000000   0.000000   0.000000
    23  H    0.000000   0.000000   0.000000   0.000000   0.000000   0.000000
    24  H    0.000000   0.000000   0.000000   0.000000   0.000000   0.000000
    25  H    0.000000   0.000000   0.000000   0.000000   0.000000   0.000000
    26  H    0.000000   0.000000   0.000000   0.000000   0.000000   0.000000
    27  C    0.000000   0.000000   0.000000   0.000000   0.000000   0.000000
    28  H    0.000000   0.000000   0.000000   0.000000   0.000000   0.000000
    29  H    0.000000   0.000000   0.000000   0.000000   0.000000   0.000000
    30  H    0.000000   0.000000   0.000000   0.000000   0.000000   0.000000
    31  C    0.000000   0.000000   0.000000   0.000000   0.000000   0.000000
    32  H    0.000000   0.000000   0.000000   0.000000   0.000000   0.000000
    33  H    0.000000   0.000000   0.000000   0.000000   0.000000   0.000000
    34  H    0.000000   0.000000   0.000000   0.000000   0.000000   0.000000
             19         20         21         22         23         24
     1  C    0.000000   0.000000   0.000000   0.000000   0.000000   0.000000
     2  C    0.000000   0.000000   0.000000   0.000000   0.000000   0.000000
     3  C    0.000000   0.000000   0.000000   0.000000   0.000000   0.000000
     4  C    0.000000   0.000000   0.000000   0.000000   0.000000   0.000000
     5  N    0.000000   0.000000   0.000000   0.000000   0.000000   0.000000
     6  C    0.000000   0.000000   0.000000   0.000000   0.000000   0.000000
     7  O    0.000000   0.000000   0.000000   0.000000   0.000000   0.000000
     8  O    0.000000   0.000000   0.000000   0.000000   0.000000   0.000000
     9  C    0.000000   0.000000   0.000000   0.000000   0.000000   0.000000
    10  H    0.000000   0.000000   0.000000   0.000000   0.000000   0.000000
    11  H    0.000000   0.000000   0.000000   0.000000   0.000000   0.000000
    12  H    0.000000   0.000000   0.000000   0.000000   0.000000   0.000000
    13  H    0.000000   0.000000   0.000000   0.000000   0.000000   0.000000
    14  C    0.000000   0.000000   0.000000   0.000000   0.000000   0.000000
    15  C    0.000000   0.000000   0.000000   0.000000   0.000000   0.000000
    16  H    0.000000   0.000000   0.000000   0.000000   0.000000   0.000000
    17  H    0.000000   0.000000   0.000000   0.000000   0.000000   0.000000
    18  C    0.000000   0.000000   0.000000   0.000000   0.000000   0.000000
    19  H    0.930544   0.000000   0.000000   0.000000   0.000000   0.000000
    20  O    0.000000   6.349429   0.000000   0.000000   0.000000   0.000000
    21  N    0.000000   0.000000   5.050889   0.000000   0.000000   0.000000
    22  H    0.000000   0.000000   0.000000   0.967902   0.000000   0.000000
    23  H    0.000000   0.000000   0.000000   0.000000   0.938205   0.000000
    24  H    0.000000   0.000000   0.000000   0.000000   0.000000   0.941616
    25  H    0.000000   0.000000   0.000000   0.000000   0.000000   0.000000
    26  H    0.000000   0.000000   0.000000   0.000000   0.000000   0.000000
    27  C    0.000000   0.000000   0.000000   0.000000   0.000000   0.000000
    28  H    0.000000   0.000000   0.000000   0.000000   0.000000   0.000000
    29  H    0.000000   0.000000   0.000000   0.000000   0.000000   0.000000
    30  H    0.000000   0.000000   0.000000   0.000000   0.000000   0.000000
    31  C    0.000000   0.000000   0.000000   0.000000   0.000000   0.000000
    32  H    0.000000   0.000000   0.000000   0.000000   0.000000   0.000000
    33  H    0.000000   0.000000   0.000000   0.000000   0.000000   0.000000
    34  H    0.000000   0.000000   0.000000   0.000000   0.000000   0.000000
             25         26         27         28         29         30
     1  C    0.000000   0.000000   0.000000   0.000000   0.000000   0.000000
     2  C    0.000000   0.000000   0.000000   0.000000   0.000000   0.000000
     3  C    0.000000   0.000000   0.000000   0.000000   0.000000   0.000000
     4  C    0.000000   0.000000   0.000000   0.000000   0.000000   0.000000
     5  N    0.000000   0.000000   0.000000   0.000000   0.000000   0.000000
     6  C    0.000000   0.000000   0.000000   0.000000   0.000000   0.000000
     7  O    0.000000   0.000000   0.000000   0.000000   0.000000   0.000000
     8  O    0.000000   0.000000   0.000000   0.000000   0.000000   0.000000
     9  C    0.000000   0.000000   0.000000   0.000000   0.000000   0.000000
    10  H    0.000000   0.000000   0.000000   0.000000   0.000000   0.000000
    11  H    0.000000   0.000000   0.000000   0.000000   0.000000   0.000000
    12  H    0.000000   0.000000   0.000000   0.000000   0.000000   0.000000
    13  H    0.000000   0.000000   0.000000   0.000000   0.000000   0.000000
    14  C    0.000000   0.000000   0.000000   0.000000   0.000000   0.000000
    15  C    0.000000   0.000000   0.000000   0.000000   0.000000   0.000000
    16  H    0.000000   0.000000   0.000000   0.000000   0.000000   0.000000
    17  H    0.000000   0.000000   0.000000   0.000000   0.000000   0.000000
    18  C    0.000000   0.000000   0.000000   0.000000   0.000000   0.000000
    19  H    0.000000   0.000000   0.000000   0.000000   0.000000   0.000000
    20  O    0.000000   0.000000   0.000000   0.000000   0.000000   0.000000
    21  N    0.000000   0.000000   0.000000   0.000000   0.000000   0.000000
    22  H    0.000000   0.000000   0.000000   0.000000   0.000000   0.000000
    23  H    0.000000   0.000000   0.000000   0.000000   0.000000   0.000000
    24  H    0.000000   0.000000   0.000000   0.000000   0.000000   0.000000
    25  H    0.899656   0.000000   0.000000   0.000000   0.000000   0.000000
    26  H    0.000000   0.895722   0.000000   0.000000   0.000000   0.000000
    27  C    0.000000   0.000000   4.081726   0.000000   0.000000   0.000000
    28  H    0.000000   0.000000   0.000000   0.957152   0.000000   0.000000
    29  H    0.000000   0.000000   0.000000   0.000000   0.944900   0.000000
    30  H    0.000000   0.000000   0.000000   0.000000   0.000000   0.960564
    31  C    0.000000   0.000000   0.000000   0.000000   0.000000   0.000000
    32  H    0.000000   0.000000   0.000000   0.000000   0.000000   0.000000
    33  H    0.000000   0.000000   0.000000   0.000000   0.000000   0.000000
    34  H    0.000000   0.000000   0.000000   0.000000   0.000000   0.000000
             31         32         33         34
     1  C    0.000000   0.000000   0.000000   0.000000
     2  C    0.000000   0.000000   0.000000   0.000000
     3  C    0.000000   0.000000   0.000000   0.000000
     4  C    0.000000   0.000000   0.000000   0.000000
     5  N    0.000000   0.000000   0.000000   0.000000
     6  C    0.000000   0.000000   0.000000   0.000000
     7  O    0.000000   0.000000   0.000000   0.000000
     8  O    0.000000   0.000000   0.000000   0.000000
     9  C    0.000000   0.000000   0.000000   0.000000
    10  H    0.000000   0.000000   0.000000   0.000000
    11  H    0.000000   0.000000   0.000000   0.000000
    12  H    0.000000   0.000000   0.000000   0.000000
    13  H    0.000000   0.000000   0.000000   0.000000
    14  C    0.000000   0.000000   0.000000   0.000000
    15  C    0.000000   0.000000   0.000000   0.000000
    16  H    0.000000   0.000000   0.000000   0.000000
    17  H    0.000000   0.000000   0.000000   0.000000
    18  C    0.000000   0.000000   0.000000   0.000000
    19  H    0.000000   0.000000   0.000000   0.000000
    20  O    0.000000   0.000000   0.000000   0.000000
    21  N    0.000000   0.000000   0.000000   0.000000
    22  H    0.000000   0.000000   0.000000   0.000000
    23  H    0.000000   0.000000   0.000000   0.000000
    24  H    0.000000   0.000000   0.000000   0.000000
    25  H    0.000000   0.000000   0.000000   0.000000
    26  H    0.000000   0.000000   0.000000   0.000000
    27  C    0.000000   0.000000   0.000000   0.000000
    28  H    0.000000   0.000000   0.000000   0.000000
    29  H    0.000000   0.000000   0.000000   0.000000
    30  H    0.000000   0.000000   0.000000   0.000000
    31  C    4.083631   0.000000   0.000000   0.000000
    32  H    0.000000   0.940484   0.000000   0.000000
    33  H    0.000000   0.000000   0.956303   0.000000
    34  H    0.000000   0.000000   0.000000   0.953452
 Mulliken atomic charges:
              1
     1  C   -0.068513
     2  C   -0.108222
     3  C   -0.188898
     4  C    0.055639
     5  N   -0.010063
     6  C    0.342557
     7  O   -0.389083
     8  O   -0.284717
     9  C    0.071802
    10  H    0.052926
    11  H    0.024605
    12  H    0.044027
    13  H    0.081258
    14  C   -0.100132
    15  C   -0.080210
    16  H    0.082168
    17  H    0.062803
    18  C    0.264226
    19  H    0.069456
    20  O   -0.349429
    21  N   -0.050889
    22  H    0.032098
    23  H    0.061795
    24  H    0.058384
    25  H    0.100344
    26  H    0.104278
    27  C   -0.081726
    28  H    0.042848
    29  H    0.055100
    30  H    0.039436
    31  C   -0.083631
    32  H    0.059516
    33  H    0.043697
    34  H    0.046548
 Sum of Mulliken charges=   0.00000
 Atomic charges with hydrogens summed into heavy atoms:
              1
     1  C    0.051667
     2  C   -0.007878
     3  C   -0.084620
     4  C    0.087737
     5  N    0.071195
     6  C    0.342557
     7  O   -0.389083
     8  O   -0.284717
     9  C    0.193361
    10  H    0.000000
    11  H    0.000000
    12  H    0.000000
    13  H    0.000000
    14  C    0.044838
    15  C   -0.010754
    16  H    0.000000
    17  H    0.000000
    18  C    0.264226
    19  H    0.000000
    20  O   -0.349429
    21  N   -0.050889
    22  H    0.000000
    23  H    0.000000
    24  H    0.000000
    25  H    0.000000
    26  H    0.000000
    27  C    0.055658
    28  H    0.000000
    29  H    0.000000
    30  H    0.000000
    31  C    0.066130
    32  H    0.000000
    33  H    0.000000
    34  H    0.000000
 Sum of Mulliken charges=   0.00000
 -------------------------------------------------------------------
 Center     Atomic                   Forces (Hartrees/Bohr)
 Number     Number              X              Y              Z
 -------------------------------------------------------------------
    1          6          -0.004729765   -0.014534752    0.003149656
    2          6           0.008797397   -0.014309820   -0.001764314
    3          6           0.016462972    0.013865279    0.000902974
    4          6          -0.000806189    0.033404706   -0.010173441
    5          7          -0.041461166    0.021459349    0.011323053
    6          6           0.032560170   -0.023199092    0.000915155
    7          8           0.013838239   -0.007757958    0.016361961
    8          8           0.001498331   -0.029310461    0.002700634
    9          6          -0.005390562    0.000660652   -0.000667228
   10          1           0.001649879   -0.001066296    0.001586999
   11          1           0.002039222    0.001655931    0.000195737
   12          1          -0.005394725    0.004427792    0.000470847
   13          1           0.000477140    0.007926002   -0.000613289
   14          6          -0.010037267   -0.007852794   -0.004852262
   15          6          -0.005955357    0.014098709    0.010645619
   16          1          -0.001055061   -0.001345412    0.006560919
   17          1           0.006071031    0.000887853   -0.000130929
   18          6          -0.022754622    0.028418430    0.042854190
   19          1          -0.001659829   -0.000322394   -0.012033125
   20          8          -0.007774636   -0.013158092   -0.022254907
   21          7           0.014706209    0.007693281   -0.015453982
   22          1           0.002678228   -0.002570798   -0.015924544
   23          1          -0.000085652    0.006564846    0.002911061
   24          1           0.001263340    0.002580151   -0.006976202
   25          1          -0.003358895    0.003903940   -0.000999088
   26          1          -0.004880439   -0.004938210   -0.001836834
   27          6          -0.003327694   -0.010122791   -0.006578289
   28          1          -0.008940135   -0.007692365    0.002971669
   29          1           0.001713678   -0.001074015   -0.004414052
   30          1          -0.002527249    0.001937191   -0.004968006
   31          6           0.016484857   -0.005971321    0.004068914
   32          1           0.002532652    0.000923681    0.000802770
   33          1           0.001616535   -0.002224482   -0.001055532
   34          1           0.005749364   -0.002956742    0.002273866
 -------------------------------------------------------------------
 Cartesian Forces:  Max     0.042854190 RMS     0.011731886

 GradGradGradGradGradGradGradGradGradGradGradGradGradGradGradGradGradGrad
 Berny optimization.
 Internal  Forces:  Max     0.071138539 RMS     0.011198140
 Search for a local minimum.
 Step number   1 out of a maximum of 145
 All quantities printed in internal units (Hartrees-Bohrs-Radians)
 Second derivative matrix not updated -- first step.
 RFO step:  Lambda= 4.29386590D-03.
 Linear search not attempted -- first point.
 Iteration  1 RMS(Cart)=  0.11483364 RMS(Int)=  0.00539332
 Iteration  2 RMS(Cart)=  0.00793850 RMS(Int)=  0.00209156
 Iteration  3 RMS(Cart)=  0.00010184 RMS(Int)=  0.00209116
 Iteration  4 RMS(Cart)=  0.00000181 RMS(Int)=  0.00209115
 Iteration  5 RMS(Cart)=  0.00000002 RMS(Int)=  0.00209115
 Variable       Old X    -DE/DX   Delta X   Delta X   Delta X     New X
                                 (Linear)    (Quad)   (Total)
    R1        2.80988  -0.00652   0.00000  -0.01930  -0.01928   2.79059
    R2        2.87316  -0.00198   0.00000  -0.01361  -0.01387   2.85930
    R3        2.07137   0.00706   0.00000   0.02006   0.02006   2.09143
    R4        2.07192   0.00752   0.00000   0.02168   0.02168   2.09360
    R5        2.53165  -0.01319   0.00000  -0.02263  -0.02240   2.50925
    R6        2.05564   0.00494   0.00000   0.01361   0.01361   2.06925
    R7        2.88895  -0.01116   0.00000  -0.03685  -0.03663   2.85232
    R8        2.05786   0.00617   0.00000   0.01787   0.01787   2.07573
    R9        2.75240   0.03753   0.00000   0.08614   0.08614   2.83853
   R10        2.94774  -0.01247   0.00000  -0.04002  -0.04004   2.90770
   R11        2.07837   0.01535   0.00000   0.04502   0.04502   2.12340
   R12        2.55982   0.07114   0.00000   0.12184   0.12184   2.68166
   R13        1.91146  -0.00269   0.00000  -0.00486  -0.00486   1.90660
   R14        2.28816   0.01997   0.00000   0.01902   0.01902   2.30718
   R15        2.57068   0.02041   0.00000   0.03586   0.03586   2.60654
   R16        2.70268  -0.00836   0.00000  -0.02536  -0.02536   2.67732
   R17        2.06522   0.00232   0.00000   0.00416   0.00416   2.06938
   R18        2.06988   0.00103   0.00000   0.00501   0.00501   2.07489
   R19        2.06665   0.00037   0.00000  -0.00024  -0.00024   2.06642
   R20        2.93767  -0.01065   0.00000  -0.04184  -0.04201   2.89566
   R21        2.07440   0.00673   0.00000   0.01842   0.01842   2.09282
   R22        2.07743   0.00584   0.00000   0.01814   0.01814   2.09557
   R23        2.91461  -0.00059   0.00000   0.00332   0.00332   2.91793
   R24        2.08592   0.01110   0.00000   0.03257   0.03257   2.11850
   R25        2.33711  -0.02605   0.00000  -0.02912  -0.02912   2.30798
   R26        2.64929   0.03946   0.00000   0.07983   0.07983   2.72912
   R27        2.73818   0.02490   0.00000   0.06268   0.06268   2.80086
   R28        2.74966   0.02834   0.00000   0.07111   0.07111   2.82078
   R29        2.04492   0.01106   0.00000   0.03322   0.03322   2.07814
   R30        2.06981   0.00316   0.00000   0.00908   0.00908   2.07888
   R31        2.05934   0.00588   0.00000   0.01373   0.01373   2.07307
   R32        2.07089   0.00208   0.00000   0.00628   0.00628   2.07717
   R33        2.06771   0.00250   0.00000   0.00689   0.00689   2.07460
   R34        2.06619   0.00405   0.00000   0.01080   0.01080   2.07698
    A1        1.93939  -0.00101   0.00000  -0.01089  -0.01151   1.92788
    A2        1.91741  -0.00061   0.00000   0.00611   0.00643   1.92384
    A3        1.89854  -0.00010   0.00000  -0.00534  -0.00531   1.89322
    A4        1.90255   0.00120   0.00000   0.00993   0.01015   1.91271
    A5        1.93692   0.00092   0.00000   0.00489   0.00491   1.94183
    A6        1.86768  -0.00040   0.00000  -0.00438  -0.00436   1.86332
    A7        2.13517   0.00059   0.00000  -0.00350  -0.00366   2.13151
    A8        2.05121  -0.00131   0.00000  -0.00294  -0.00286   2.04835
    A9        2.09672   0.00071   0.00000   0.00643   0.00651   2.10324
   A10        2.19106  -0.00032   0.00000  -0.00200  -0.00285   2.18820
   A11        2.03567   0.00331   0.00000   0.02366   0.02274   2.05841
   A12        2.05583  -0.00304   0.00000  -0.01908  -0.01996   2.03587
   A13        1.77916   0.00285   0.00000   0.03863   0.03861   1.81777
   A14        1.97602   0.00091   0.00000  -0.00652  -0.00657   1.96945
   A15        1.84273   0.00329   0.00000   0.01019   0.00987   1.85261
   A16        2.19813  -0.01259   0.00000  -0.04986  -0.05017   2.14797
   A17        1.80033   0.01053   0.00000   0.04479   0.04443   1.84476
   A18        1.83488  -0.00178   0.00000  -0.02498  -0.02537   1.80951
   A19        2.20882   0.01335   0.00000  -0.01624  -0.01641   2.19241
   A20        1.93631  -0.01122   0.00000  -0.04959  -0.04991   1.88640
   A21        1.85290   0.00489   0.00000   0.04793   0.04780   1.90070
   A22        2.22120   0.00716   0.00000   0.03848   0.02471   2.24591
   A23        1.87050   0.00325   0.00000   0.00500  -0.00809   1.86241
   A24        2.18919  -0.00916   0.00000  -0.02433  -0.03704   2.15216
   A25        2.00612   0.02036   0.00000   0.05914   0.05914   2.06526
   A26        1.95584   0.00315   0.00000   0.01700   0.01690   1.97274
   A27        1.90952   0.00022   0.00000  -0.01349  -0.01358   1.89595
   A28        1.88669  -0.01063   0.00000  -0.05643  -0.05662   1.83007
   A29        1.93005  -0.00035   0.00000   0.00064   0.00062   1.93067
   A30        1.89899   0.00273   0.00000   0.02656   0.02637   1.92536
   A31        1.88070   0.00475   0.00000   0.02514   0.02496   1.90565
   A32        1.99045  -0.00509   0.00000  -0.02936  -0.03011   1.96033
   A33        1.90611   0.00305   0.00000   0.01597   0.01623   1.92233
   A34        1.87899   0.00288   0.00000   0.01583   0.01583   1.89482
   A35        1.91504   0.00139   0.00000   0.00619   0.00638   1.92141
   A36        1.91146  -0.00109   0.00000  -0.01011  -0.01011   1.90135
   A37        1.85682  -0.00087   0.00000   0.00375   0.00375   1.86057
   A38        1.97541   0.00109   0.00000  -0.00479  -0.00620   1.96921
   A39        2.17442  -0.01611   0.00000  -0.04830  -0.04824   2.12618
   A40        1.81681  -0.00747   0.00000  -0.01749  -0.01776   1.79905
   A41        1.84712   0.01899   0.00000   0.01268   0.01215   1.85926
   A42        1.80415   0.00329   0.00000   0.04768   0.04746   1.85160
   A43        1.80335   0.00173   0.00000   0.03202   0.03177   1.83512
   A44        2.09896   0.01189   0.00000   0.02925   0.02838   2.12734
   A45        2.06394  -0.00688   0.00000   0.01995   0.01900   2.08295
   A46        2.09649  -0.00715   0.00000  -0.03295  -0.03397   2.06252
   A47        2.12290  -0.00168   0.00000  -0.02873  -0.02869   2.09421
   A48        2.00924   0.00794   0.00000   0.03787   0.03777   2.04701
   A49        2.01645  -0.00640   0.00000  -0.01490  -0.01497   2.00148
   A50        1.93047   0.00875   0.00000   0.03803   0.03784   1.96831
   A51        1.93001  -0.00002   0.00000   0.00187   0.00168   1.93169
   A52        1.91866  -0.00266   0.00000  -0.00630  -0.00635   1.91230
   A53        1.86067  -0.00091   0.00000  -0.00043  -0.00074   1.85992
   A54        1.90775  -0.00196   0.00000  -0.01587  -0.01592   1.89183
   A55        1.91541  -0.00320   0.00000  -0.01760  -0.01764   1.89777
   A56        1.90762   0.00212   0.00000   0.00372   0.00358   1.91120
   A57        1.91793  -0.00133   0.00000  -0.00877  -0.00891   1.90902
   A58        1.92062   0.00752   0.00000   0.04901   0.04885   1.96947
   A59        1.88375  -0.00126   0.00000  -0.00888  -0.00900   1.87475
   A60        1.90614  -0.00231   0.00000  -0.01330  -0.01344   1.89269
   A61        1.92727  -0.00487   0.00000  -0.02284  -0.02298   1.90429
    D1       -0.47022   0.00013   0.00000   0.00853   0.00860  -0.46162
    D2        2.65763  -0.00068   0.00000   0.00804   0.00800   2.66563
    D3       -2.57706  -0.00032   0.00000  -0.00091  -0.00086  -2.57793
    D4        0.87840   0.00237   0.00000   0.04703   0.04673   0.92513
    D5       -1.27095   0.00184   0.00000   0.04759   0.04764  -1.22330
    D6        2.99398   0.00176   0.00000   0.05427   0.05405   3.04803
    D7        0.02281  -0.00412   0.00000  -0.04118  -0.04133  -0.01852
    D8        3.12531  -0.00569   0.00000   0.03876   0.03937  -3.11850
    D9       -3.10469  -0.00328   0.00000  -0.04061  -0.04064   3.13785
   D10        2.42680  -0.01030   0.00000  -0.02795  -0.02831   2.39849
   D11        0.01766   0.00344   0.00000   0.01049   0.01082   0.02848
   D12       -0.67530  -0.00884   0.00000  -0.10959  -0.10894  -0.78424
   D13       -3.00510   0.00780   0.00000  -0.03920  -0.03877  -3.04387
   D14        0.99333  -0.00109   0.00000  -0.03664  -0.03647   0.95686
   D15       -0.72539   0.00108   0.00000  -0.05015  -0.05074  -0.77613
   D16        0.39010   0.00262   0.00000   0.05287   0.05292   0.44302
   D17        2.67607   0.01721   0.00000   0.01174   0.01219   2.68826
   D18       -1.81057   0.01022   0.00000   0.05071   0.05073  -1.75984
   D19        0.93743   0.00416   0.00000   0.22537   0.22688   1.16431
   D20       -2.13423  -0.01445   0.00000  -0.06613  -0.06797  -2.20220
   D21       -3.02968   0.00631   0.00000   0.18735   0.18768  -2.84199
   D22        2.88591   0.01384   0.00000   0.06670   0.06185   2.94776
   D23       -0.18738  -0.00515   0.00000  -0.22117  -0.21632  -0.40370
   D24        0.82129   0.00203   0.00000   0.09219   0.09204   0.91333
   D25       -1.32587   0.00017   0.00000   0.08935   0.08950  -1.23638
   D26       -0.85461  -0.00391   0.00000  -0.08007  -0.08008  -0.93469
   D27        2.98941  -0.00067   0.00000  -0.01859  -0.01788   2.97153
   D28        1.28988  -0.00250   0.00000  -0.07545  -0.07562   1.21426
   D29       -1.91843   0.00428   0.00000   0.14730   0.14799  -1.77043
   D30        1.45546   0.01558   0.00000   0.07374   0.07290   1.52836
   D31        0.41736   0.01235   0.00000   0.10420   0.10436   0.52172
   D32       -0.97910   0.00262   0.00000  -0.01235  -0.01301  -0.99211
   D33        2.72111   0.00473   0.00000   0.00188   0.00180   2.72291
   D34        2.39445   0.01129   0.00000  -0.09435  -0.09360   2.30085
   D35       -0.69187  -0.00073   0.00000  -0.05792  -0.05787  -0.74975
   D36       -2.74900  -0.00505   0.00000  -0.08226  -0.08247  -2.83147
   D37        1.88896   0.00141   0.00000  -0.05660  -0.05644   1.83252
   D38       -0.83806  -0.00069   0.00000  -0.06024  -0.06049  -0.89855
   D39       -2.90220   0.00037   0.00000  -0.04647  -0.04645  -2.94865
   D40        2.82727   0.00009   0.00000  -0.04099  -0.04076   2.78651
         Item               Value     Threshold  Converged?
 Maximum Force            0.071139     0.000450     NO 
 RMS     Force            0.011198     0.000300     NO 
 Maximum Displacement     0.406498     0.001800     NO 
 RMS     Displacement     0.113879     0.001200     NO 
 Predicted change in Energy=-2.542173D-02
 GradGradGradGradGradGradGradGradGradGradGradGradGradGradGradGradGradGrad

                          Input orientation:                          
 ---------------------------------------------------------------------
 Center     Atomic     Atomic              Coordinates (Angstroms)
 Number     Number      Type              X           Y           Z
 ---------------------------------------------------------------------
    1          6             0       -1.644181    3.906637   -0.180189
    2          6             0       -2.990352    3.301067   -0.222726
    3          6             0       -3.171812    1.988132   -0.302907
    4          6             0       -2.072170    0.957319   -0.383229
    5          7             0       -2.525424   -0.135979    0.541715
    6          6             0       -1.771506   -1.285197    0.894803
    7          8             0       -0.740843   -1.351224    1.545951
    8          8             0       -2.563640   -2.379766    0.617365
    9          6             0       -1.969647   -3.665556    0.651539
   10          1             0       -1.431787   -3.864327    1.584474
   11          1             0       -1.297402   -3.764407   -0.210946
   12          1             0       -2.804218   -4.363017    0.538472
   13          1             0       -3.448399   -0.425871    0.255331
   14          6             0       -0.643080    2.930330    0.397752
   15          6             0       -0.665695    1.578453   -0.323300
   16          1             0       -0.830702    2.787486    1.479830
   17          1             0        0.371124    3.369569    0.307297
   18          6             0        0.553615    0.784476    0.193554
   19          1             0       -0.438585    1.796395   -1.399264
   20          8             0        0.997953    0.945262    1.319771
   21          7             0        1.310850   -0.029230   -0.728484
   22          1             0       -2.126628    0.522285   -1.417820
   23          1             0       -1.658628    4.828941    0.431379
   24          1             0       -1.362745    4.209273   -1.208106
   25          1             0       -3.848907    3.978778   -0.171555
   26          1             0       -4.203083    1.613218   -0.352562
   27          6             0        0.632967   -1.092836   -1.506939
   28          1             0       -0.077429   -1.675567   -0.902695
   29          1             0        1.366191   -1.809057   -1.906470
   30          1             0        0.086804   -0.643103   -2.345331
   31          6             0        2.730137   -0.325285   -0.373380
   32          1             0        3.252627    0.612502   -0.137193
   33          1             0        3.235913   -0.774424   -1.238078
   34          1             0        2.822263   -1.001216    0.488383
 ---------------------------------------------------------------------
                    Distance matrix (angstroms):
                    1          2          3          4          5
     1  C    0.000000
     2  C    1.476719   0.000000
     3  C    2.455478   1.327838   0.000000
     4  C    2.987118   2.522296   1.509385   0.000000
     5  N    4.200056   3.551593   2.375511   1.502086   0.000000
     6  C    5.303485   4.875272   3.756335   2.598585   1.419072
     7  O    5.607199   5.461897   4.525394   3.289915   2.381185
     8  O    6.403152   5.758446   4.505032   3.518362   2.245388
     9  C    7.624684   7.095070   5.858359   4.738379   3.574754
    10  H    7.971639   7.552349   6.390710   5.246925   4.022930
    11  H    7.678939   7.265476   6.050915   4.787968   3.903848
    12  H    8.381487   7.704041   6.417175   5.448981   4.236223
    13  H    4.713332   3.785289   2.493099   2.053042   1.008929
    14  C    1.513075   2.456038   2.788036   2.558320   3.600860
    15  C    2.529497   2.895090   2.539464   1.538691   2.673222
    16  H    2.160998   2.797597   3.049248   2.891668   3.506963
    17  H    2.141854   3.403695   3.851378   3.502208   4.553439
    18  C    3.836389   4.366489   3.946400   2.693938   3.232481
    19  H    2.718957   3.187444   2.951152   2.098803   3.443308
    20  O    4.242699   4.882181   4.594301   3.510841   3.766780
    21  N    4.952160   5.463242   4.934078   3.540805   4.042499
    22  H    3.635701   3.145775   2.117581   1.123654   2.105262
    23  H    1.106738   2.129728   3.301378   3.977946   5.041223
    24  H    1.107884   2.108297   3.004260   3.429127   4.826480
    25  H    2.205923   1.095001   2.106746   3.511526   4.380820
    26  H    3.440561   2.082404   1.098429   2.229784   2.583401
    27  C    5.651584   5.838153   5.041667   3.575419   3.884326
    28  H    5.842750   5.806407   4.832975   3.343789   3.232543
    29  H    6.686669   6.922993   6.130541   4.668557   4.892593
    30  H    5.327690   5.434227   4.659772   3.327515   3.926314
    31  C    6.089429   6.774741   6.339548   4.970646   5.337992
    32  H    5.901856   6.797829   6.572156   5.341619   5.865749
    33  H    6.844471   7.510456   7.040256   5.648491   6.063686
    34  H    6.669568   7.266486   6.744723   5.343318   5.417494
                    6          7          8          9         10
     6  C    0.000000
     7  O    1.220909   0.000000
     8  O    1.379322   2.289707   0.000000
     9  C    2.400947   2.768766   1.416775   0.000000
    10  H    2.691276   2.606640   2.102454   1.095067   0.000000
    11  H    2.755709   3.036427   2.051021   1.097982   1.803213
    12  H    3.265952   3.787271   1.999346   1.093501   1.796213
    13  H    1.989808   3.138923   2.175219   3.583190   4.201943
    14  C    4.392160   4.433918   5.651009   6.732748   6.942458
    15  C    3.302587   3.476025   4.489381   5.490922   5.818105
    16  H    4.220677   4.140214   5.517917   6.604923   6.679735
    17  H    5.157797   5.005659   6.462494   7.422311   7.563790
    18  C    3.190844   2.840038   4.461987   5.136087   5.242886
    19  H    4.066403   4.321245   5.101272   6.031820   6.475563
    20  O    3.581263   2.889363   4.922817   5.523841   5.394983
    21  N    3.703165   3.336191   4.727367   5.088123   5.251648
    22  H    2.956574   3.770196   3.571395   4.673854   5.360872
    23  H    6.132714   6.346577   7.267675   8.503040   8.772342
    24  H    5.897331   6.236243   6.941897   8.114157   8.543202
    25  H    5.758659   6.404593   6.534936   7.914856   8.392878
    26  H    3.983629   4.937548   4.424077   5.819099   6.437056
    27  C    3.403947   3.357716   4.048105   4.248707   4.636939
    28  H    2.500656   2.557573   2.997953   3.155343   3.579241
    29  H    4.238714   4.070431   4.705212   4.595412   4.923363
    30  H    3.789995   4.040855   4.338020   4.727096   5.303373
    31  C    4.774359   4.096839   5.764247   5.856265   5.803415
    32  H    5.468837   4.757835   6.584222   6.796765   6.704466
    33  H    5.466655   4.888569   6.297191   6.247172   6.269109
    34  H    4.620448   3.733187   5.561024   5.485228   5.243640
                   11         12         13         14         15
    11  H    0.000000
    12  H    1.786184   0.000000
    13  H    3.998753   3.999532   0.000000
    14  C    6.754121   7.608102   4.376549   0.000000
    15  C    5.381247   6.373146   3.477868   1.532318   0.000000
    16  H    6.782612   7.477339   4.321735   1.107474   2.177215
    17  H    7.344805   8.362363   5.384869   1.108929   2.163503
    18  C    4.927699   6.155542   4.181492   2.465454   1.544103
    19  H    5.750842   6.876728   4.090860   2.134688   1.121061
    20  O    5.458271   6.576074   4.773163   2.735618   2.422465
    21  N    4.585015   6.109064   4.876030   3.720920   2.579835
    22  H    4.529889   5.305882   2.333563   3.360936   2.108978
    23  H    8.624887   9.263688   5.554036   2.153414   3.481541
    24  H    8.036054   8.866371   5.289250   2.175406   2.861814
    25  H    8.152830   8.436886   4.443373   3.420626   3.989665
    26  H    6.114073   6.202108   2.257646   3.869286   3.537680
    27  C    3.541640   5.166432   4.495330   4.630552   3.197391
    28  H    2.515969   4.090809   3.777063   4.819275   3.357142
    29  H    3.713882   5.467426   5.455902   5.639893   4.255609
    30  H    4.026681   5.523774   4.394120   4.563623   3.096800
    31  C    5.298586   6.911139   6.211257   4.751028   3.893379
    32  H    6.313915   7.867507   6.792352   4.564540   4.039918
    33  H    5.526838   7.246883   6.857973   5.607828   4.647085
    34  H    5.009583   6.554502   6.301313   5.241553   4.413544
                   16         17         18         19         20
    16  H    0.000000
    17  H    1.777087   0.000000
    18  C    2.753704   2.594021   0.000000
    19  H    3.070049   2.458222   2.132020   0.000000
    20  O    2.600651   2.700978   1.221332   3.190802   0.000000
    21  N    4.170945   3.675291   1.444187   2.615984   2.289735
    22  H    3.899607   4.161949   3.138308   2.114992   4.175682
    23  H    2.439723   2.503009   4.616088   3.746477   4.788489
    24  H    3.086997   2.451092   4.167292   2.590868   4.755715
    25  H    3.640854   4.290583   5.451520   4.230882   5.909173
    26  H    4.013666   4.944042   4.859139   3.911597   5.503965
    27  C    5.110774   4.824217   2.534221   3.083419   3.503904
    28  H    5.114947   5.207559   2.766187   3.525838   3.600631
    29  H    6.117317   5.719186   3.434646   4.063712   4.257992
    30  H    5.219445   4.818589   2.949886   2.668750   4.097080
    31  C    5.079695   4.436238   2.508033   3.949020   2.735235
    32  H    4.900907   4.012735   2.724634   4.076698   2.705000
    33  H    6.050750   5.269523   3.416791   4.487430   3.808986
    34  H    5.355500   5.014443   2.902135   4.692864   2.794296
                   21         22         23         24         25
    21  N    0.000000
    22  H    3.549029   0.000000
    23  H    5.810758   4.710185   0.000000
    24  H    5.034189   3.771124   1.777482   0.000000
    25  H    6.557240   4.057926   2.425620   2.703436   0.000000
    26  H    5.765623   2.576155   4.174887   3.941951   2.398765
    27  C    1.482152   3.198738   6.638970   5.673141   6.898675
    28  H    2.160577   3.048791   6.825582   6.031307   6.835951
    29  H    2.135064   4.227732   7.660162   6.644931   7.981617
    30  H    2.118801   2.667899   6.379648   5.190378   6.448016
    31  C    1.492690   5.039583   6.817253   6.165279   7.864446
    32  H    2.128836   5.530328   6.497850   5.948552   7.859057
    33  H    2.126233   5.520019   7.625045   6.781283   8.597970
    34  H    2.170229   5.517807   7.353391   6.895040   8.351071
                   26         27         28         29         30
    26  H    0.000000
    27  C    5.660627   0.000000
    28  H    5.304694   1.099704   0.000000
    29  H    6.718885   1.100098   1.763355   0.000000
    30  H    5.240730   1.097020   1.781615   1.785743   0.000000
    31  C    7.199151   2.504439   3.160042   2.532251   3.313127
    32  H    7.525651   3.412770   4.112241   3.543012   4.058922
    33  H    7.862801   2.636096   3.450040   2.238990   3.340680
    34  H    7.543073   2.963566   3.286040   2.916860   3.954859
                   31         32         33         34
    31  C    0.000000
    32  H    1.099192   0.000000
    33  H    1.097833   1.770816   0.000000
    34  H    1.099093   1.783436   1.789750   0.000000
 Symmetry turned off by external request.
 Stoichiometry    C11H18N2O3
 Framework group  C1[X(C11H18N2O3)]
 Deg. of freedom    96
 Full point group                 C1
 Rotational constants (GHZ):      0.6277745      0.4520337      0.3059434
 Standard basis: VSTO-3G (5D, 7F)
 Integral buffers will be    131072 words long.
 Raffenetti 1 integral format.
 Two-electron integral symmetry is turned off.
    82 basis functions,   246 primitive gaussians,    82 cartesian basis functions
    45 alpha electrons       45 beta electrons
       nuclear repulsion energy       643.8857961405 Hartrees.
 NAtoms=   34 NActive=   34 NUniq=   34 SFac= 7.50D-01 NAtFMM=   80 NAOKFM=F Big=F
 Initial guess read from the read-write file:
 RHF-PM3 calculation of energy and first derivatives.
 MO and density RWFs will be updated without deorthogonalization.
 Closed-shell calculation:      45 occupied levels.
 NNHCO=    0.
 References:
  H: (PM3): J. J. P. STEWART, J. COMP. CHEM.     10, 209 (1989).
  C: (PM3): J. J. P. STEWART, J. COMP. CHEM.     10, 209 (1989).
  N: (PM3): J. J. P. STEWART, J. COMP. CHEM.     10, 209 (1989).
  O: (PM3): J. J. P. STEWART, J. COMP. CHEM.     10, 209 (1989).
 Ext34=T Pulay=F Camp-King=F BShift= 0.00D+00
 It=  1 PL= 0.990D+00 DiagD=T ESCF=     11.174041 Diff= 0.684D+01 RMSDP= 0.164D+00.
 It=  2 PL= 0.464D-01 DiagD=T ESCF=     -3.043821 Diff=-0.142D+02 RMSDP= 0.416D-02.
 It=  3 PL= 0.162D-01 DiagD=F ESCF=     -3.989796 Diff=-0.946D+00 RMSDP= 0.238D-02.
 It=  4 PL= 0.469D-02 DiagD=F ESCF=     -4.193681 Diff=-0.204D+00 RMSDP= 0.395D-03.
 It=  5 PL= 0.303D-02 DiagD=F ESCF=     -4.137019 Diff= 0.567D-01 RMSDP= 0.219D-03.
 It=  6 PL= 0.186D-02 DiagD=F ESCF=     -4.138989 Diff=-0.197D-02 RMSDP= 0.313D-03.
 It=  7 PL= 0.200D-03 DiagD=F ESCF=     -4.141503 Diff=-0.251D-02 RMSDP= 0.164D-04.
 It=  8 PL= 0.974D-04 DiagD=F ESCF=     -4.140022 Diff= 0.148D-02 RMSDP= 0.812D-05.
 It=  9 PL= 0.509D-04 DiagD=F ESCF=     -4.140025 Diff=-0.265D-05 RMSDP= 0.952D-05.
 It= 10 PL= 0.924D-05 DiagD=F ESCF=     -4.140027 Diff=-0.232D-05 RMSDP= 0.814D-06.
 It= 11 PL= 0.545D-05 DiagD=F ESCF=     -4.140026 Diff= 0.122D-05 RMSDP= 0.458D-06.
 It= 12 PL= 0.420D-05 DiagD=F ESCF=     -4.140026 Diff=-0.751D-08 RMSDP= 0.730D-06.
 It= 13 PL= 0.126D-05 DiagD=F ESCF=     -4.140026 Diff=-0.116D-07 RMSDP= 0.539D-07.
 Energy=   -0.152146142273 NIter=  14.
 Dipole moment=      -0.735310      -0.284713      -1.706752
 -------------------------------------------------------------------
 Center     Atomic                   Forces (Hartrees/Bohr)
 Number     Number              X              Y              Z
 -------------------------------------------------------------------
    1          6           0.000761829    0.001104970    0.000743359
    2          6          -0.001525442    0.003405834    0.001322505
    3          6          -0.000692549   -0.006281019   -0.003865884
    4          6          -0.003711191   -0.006269404   -0.003414600
    5          7          -0.002241258    0.005467815    0.001693688
    6          6           0.004684650   -0.002940297    0.014417701
    7          8          -0.009009106   -0.003784090   -0.011035964
    8          8           0.005315469   -0.005480783   -0.001356470
    9          6           0.001150236    0.004902835   -0.001981067
   10          1          -0.000082156    0.000318368   -0.000173912
   11          1           0.000863143   -0.000721241    0.002310197
   12          1          -0.001516698    0.002642496    0.001008638
   13          1           0.003134795    0.003265310    0.001468223
   14          6           0.002437339   -0.000362624    0.000867022
   15          6           0.007960638    0.002077070    0.000295335
   16          1           0.000049063    0.000037523    0.000477163
   17          1           0.000062875   -0.000148699    0.001897783
   18          6          -0.008777423   -0.002703564    0.013996705
   19          1          -0.000251600   -0.000104038   -0.001276498
   20          8           0.000677659   -0.001070511   -0.009430619
   21          7           0.009770140    0.002110508   -0.009696853
   22          1           0.000185374   -0.000458182   -0.001778374
   23          1           0.000213951    0.000885079   -0.000843426
   24          1           0.000557481    0.001163108   -0.000228885
   25          1          -0.000280489    0.000882111   -0.001289109
   26          1           0.000104510   -0.001846432    0.000656715
[...]
 Alpha  occ. eigenvalues --   -0.51261  -0.50045  -0.49558  -0.48831  -0.48699
 Alpha  occ. eigenvalues --   -0.47553  -0.46623  -0.44833  -0.44025  -0.42523
 Alpha  occ. eigenvalues --   -0.41902  -0.39919  -0.38221  -0.36730  -0.34852
 Alpha virt. eigenvalues --    0.01548   0.03375   0.04364   0.04966   0.05919
 Alpha virt. eigenvalues --    0.10080   0.10612   0.10920   0.11438   0.11611
 Alpha virt. eigenvalues --    0.12285   0.12585   0.12983   0.13237   0.13376
 Alpha virt. eigenvalues --    0.13728   0.13901   0.14404   0.14511   0.14722
 Alpha virt. eigenvalues --    0.14802   0.15018   0.15270   0.15532   0.15620
 Alpha virt. eigenvalues --    0.16155   0.16429   0.16867   0.17010   0.17516
 Alpha virt. eigenvalues --    0.18754   0.19111   0.19865   0.20959   0.21045
 Alpha virt. eigenvalues --    0.26140   0.26873
          Condensed to atoms (all electrons):
              1          2          3          4          5          6
     1  C    4.070844   0.000000   0.000000   0.000000   0.000000   0.000000
     2  C    0.000000   4.103522   0.000000   0.000000   0.000000   0.000000
     3  C    0.000000   0.000000   4.203804   0.000000   0.000000   0.000000
     4  C    0.000000   0.000000   0.000000   4.019860   0.000000   0.000000
     5  N    0.000000   0.000000   0.000000   0.000000   5.005695   0.000000
     6  C    0.000000   0.000000   0.000000   0.000000   0.000000   3.654932
     7  O    0.000000   0.000000   0.000000   0.000000   0.000000   0.000000
     8  O    0.000000   0.000000   0.000000   0.000000   0.000000   0.000000
     9  C    0.000000   0.000000   0.000000   0.000000   0.000000   0.000000
    10  H    0.000000   0.000000   0.000000   0.000000   0.000000   0.000000
    11  H    0.000000   0.000000   0.000000   0.000000   0.000000   0.000000
    12  H    0.000000   0.000000   0.000000   0.000000   0.000000   0.000000
    13  H    0.000000   0.000000   0.000000   0.000000   0.000000   0.000000
    14  C    0.000000   0.000000   0.000000   0.000000   0.000000   0.000000
    15  C    0.000000   0.000000   0.000000   0.000000   0.000000   0.000000
    16  H    0.000000   0.000000   0.000000   0.000000   0.000000   0.000000
    17  H    0.000000   0.000000   0.000000   0.000000   0.000000   0.000000
    18  C    0.000000   0.000000   0.000000   0.000000   0.000000   0.000000
    19  H    0.000000   0.000000   0.000000   0.000000   0.000000   0.000000
    20  O    0.000000   0.000000   0.000000   0.000000   0.000000   0.000000
    21  N    0.000000   0.000000   0.000000   0.000000   0.000000   0.000000
    22  H    0.000000   0.000000   0.000000   0.000000   0.000000   0.000000
    23  H    0.000000   0.000000   0.000000   0.000000   0.000000   0.000000
    24  H    0.000000   0.000000   0.000000   0.000000   0.000000   0.000000
    25  H    0.000000   0.000000   0.000000   0.000000   0.000000   0.000000
    26  H    0.000000   0.000000   0.000000   0.000000   0.000000   0.000000
    27  C    0.000000   0.000000   0.000000   0.000000   0.000000   0.000000
    28  H    0.000000   0.000000   0.000000   0.000000   0.000000   0.000000
    29  H    0.000000   0.000000   0.000000   0.000000   0.000000   0.000000
    30  H    0.000000   0.000000   0.000000   0.000000   0.000000   0.000000
    31  C    0.000000   0.000000   0.000000   0.000000   0.000000   0.000000
    32  H    0.000000   0.000000   0.000000   0.000000   0.000000   0.000000
    33  H    0.000000   0.000000   0.000000   0.000000   0.000000   0.000000
    34  H    0.000000   0.000000   0.000000   0.000000   0.000000   0.000000
              7          8          9         10         11         12
     1  C    0.000000   0.000000   0.000000   0.000000   0.000000   0.000000
     2  C    0.000000   0.000000   0.000000   0.000000   0.000000   0.000000
     3  C    0.000000   0.000000   0.000000   0.000000   0.000000   0.000000
     4  C    0.000000   0.000000   0.000000   0.000000   0.000000   0.000000
     5  N    0.000000   0.000000   0.000000   0.000000   0.000000   0.000000
     6  C    0.000000   0.000000   0.000000   0.000000   0.000000   0.000000
     7  O    6.416219   0.000000   0.000000   0.000000   0.000000   0.000000
     8  O    0.000000   6.265002   0.000000   0.000000   0.000000   0.000000
     9  C    0.000000   0.000000   3.915293   0.000000   0.000000   0.000000
    10  H    0.000000   0.000000   0.000000   0.962897   0.000000   0.000000
    11  H    0.000000   0.000000   0.000000   0.000000   0.964663   0.000000
    12  H    0.000000   0.000000   0.000000   0.000000   0.000000   0.954884
    13  H    0.000000   0.000000   0.000000   0.000000   0.000000   0.000000
    14  C    0.000000   0.000000   0.000000   0.000000   0.000000   0.000000
    15  C    0.000000   0.000000   0.000000   0.000000   0.000000   0.000000
    16  H    0.000000   0.000000   0.000000   0.000000   0.000000   0.000000
    17  H    0.000000   0.000000   0.000000   0.000000   0.000000   0.000000
    18  C    0.000000   0.000000   0.000000   0.000000   0.000000   0.000000
    19  H    0.000000   0.000000   0.000000   0.000000   0.000000   0.000000
    20  O    0.000000   0.000000   0.000000   0.000000   0.000000   0.000000
    21  N    0.000000   0.000000   0.000000   0.000000   0.000000   0.000000
    22  H    0.000000   0.000000   0.000000   0.000000   0.000000   0.000000
    23  H    0.000000   0.000000   0.000000   0.000000   0.000000   0.000000
    24  H    0.000000   0.000000   0.000000   0.000000   0.000000   0.000000
    25  H    0.000000   0.000000   0.000000   0.000000   0.000000   0.000000
    26  H    0.000000   0.000000   0.000000   0.000000   0.000000   0.000000
    27  C    0.000000   0.000000   0.000000   0.000000   0.000000   0.000000
    28  H    0.000000   0.000000   0.000000   0.000000   0.000000   0.000000
    29  H    0.000000   0.000000   0.000000   0.000000   0.000000   0.000000
    30  H    0.000000   0.000000   0.000000   0.000000   0.000000   0.000000
    31  C    0.000000   0.000000   0.000000   0.000000   0.000000   0.000000
    32  H    0.000000   0.000000   0.000000   0.000000   0.000000   0.000000
    33  H    0.000000   0.000000   0.000000   0.000000   0.000000   0.000000
    34  H    0.000000   0.000000   0.000000   0.000000   0.000000   0.000000
             13         14         15         16         17         18
     1  C    0.000000   0.000000   0.000000   0.000000   0.000000   0.000000
     2  C    0.000000   0.000000   0.000000   0.000000   0.000000   0.000000
     3  C    0.000000   0.000000   0.000000   0.000000   0.000000   0.000000
     4  C    0.000000   0.000000   0.000000   0.000000   0.000000   0.000000
     5  N    0.000000   0.000000   0.000000   0.000000   0.000000   0.000000
     6  C    0.000000   0.000000   0.000000   0.000000   0.000000   0.000000
     7  O    0.000000   0.000000   0.000000   0.000000   0.000000   0.000000
     8  O    0.000000   0.000000   0.000000   0.000000   0.000000   0.000000
     9  C    0.000000   0.000000   0.000000   0.000000   0.000000   0.000000
    10  H    0.000000   0.000000   0.000000   0.000000   0.000000   0.000000
    11  H    0.000000   0.000000   0.000000   0.000000   0.000000   0.000000
    12  H    0.000000   0.000000   0.000000   0.000000   0.000000   0.000000
    13  H    0.907679   0.000000   0.000000   0.000000   0.000000   0.000000
    14  C    0.000000   4.095223   0.000000   0.000000   0.000000   0.000000
    15  C    0.000000   0.000000   4.100239   0.000000   0.000000   0.000000
    16  H    0.000000   0.000000   0.000000   0.930155   0.000000   0.000000
    17  H    0.000000   0.000000   0.000000   0.000000   0.933828   0.000000
    18  C    0.000000   0.000000   0.000000   0.000000   0.000000   3.733268
    19  H    0.000000   0.000000   0.000000   0.000000   0.000000   0.000000
    20  O    0.000000   0.000000   0.000000   0.000000   0.000000   0.000000
    21  N    0.000000   0.000000   0.000000   0.000000   0.000000   0.000000
    22  H    0.000000   0.000000   0.000000   0.000000   0.000000   0.000000
    23  H    0.000000   0.000000   0.000000   0.000000   0.000000   0.000000
    24  H    0.000000   0.000000   0.000000   0.000000   0.000000   0.000000
    25  H    0.000000   0.000000   0.000000   0.000000   0.000000   0.000000
    26  H    0.000000   0.000000   0.000000   0.000000   0.000000   0.000000
    27  C    0.000000   0.000000   0.000000   0.000000   0.000000   0.000000
    28  H    0.000000   0.000000   0.000000   0.000000   0.000000   0.000000
    29  H    0.000000   0.000000   0.000000   0.000000   0.000000   0.000000
    30  H    0.000000   0.000000   0.000000   0.000000   0.000000   0.000000
    31  C    0.000000   0.000000   0.000000   0.000000   0.000000   0.000000
    32  H    0.000000   0.000000   0.000000   0.000000   0.000000   0.000000
    33  H    0.000000   0.000000   0.000000   0.000000   0.000000   0.000000
    34  H    0.000000   0.000000   0.000000   0.000000   0.000000   0.000000
             19         20         21         22         23         24
     1  C    0.000000   0.000000   0.000000   0.000000   0.000000   0.000000
     2  C    0.000000   0.000000   0.000000   0.000000   0.000000   0.000000
     3  C    0.000000   0.000000   0.000000   0.000000   0.000000   0.000000
     4  C    0.000000   0.000000   0.000000   0.000000   0.000000   0.000000
     5  N    0.000000   0.000000   0.000000   0.000000   0.000000   0.000000
     6  C    0.000000   0.000000   0.000000   0.000000   0.000000   0.000000
     7  O    0.000000   0.000000   0.000000   0.000000   0.000000   0.000000
     8  O    0.000000   0.000000   0.000000   0.000000   0.000000   0.000000
     9  C    0.000000   0.000000   0.000000   0.000000   0.000000   0.000000
    10  H    0.000000   0.000000   0.000000   0.000000   0.000000   0.000000
    11  H    0.000000   0.000000   0.000000   0.000000   0.000000   0.000000
    12  H    0.000000   0.000000   0.000000   0.000000   0.000000   0.000000
    13  H    0.000000   0.000000   0.000000   0.000000   0.000000   0.000000
    14  C    0.000000   0.000000   0.000000   0.000000   0.000000   0.000000
    15  C    0.000000   0.000000   0.000000   0.000000   0.000000   0.000000
    16  H    0.000000   0.000000   0.000000   0.000000   0.000000   0.000000
    17  H    0.000000   0.000000   0.000000   0.000000   0.000000   0.000000
    18  C    0.000000   0.000000   0.000000   0.000000   0.000000   0.000000
    19  H    0.910271   0.000000   0.000000   0.000000   0.000000   0.000000
    20  O    0.000000   6.351627   0.000000   0.000000   0.000000   0.000000
    21  N    0.000000   0.000000   5.073443   0.000000   0.000000   0.000000
    22  H    0.000000   0.000000   0.000000   0.896779   0.000000   0.000000
    23  H    0.000000   0.000000   0.000000   0.000000   0.936765   0.000000
    24  H    0.000000   0.000000   0.000000   0.000000   0.000000   0.937719
    25  H    0.000000   0.000000   0.000000   0.000000   0.000000   0.000000
    26  H    0.000000   0.000000   0.000000   0.000000   0.000000   0.000000
    27  C    0.000000   0.000000   0.000000   0.000000   0.000000   0.000000
    28  H    0.000000   0.000000   0.000000   0.000000   0.000000   0.000000
    29  H    0.000000   0.000000   0.000000   0.000000   0.000000   0.000000
    30  H    0.000000   0.000000   0.000000   0.000000   0.000000   0.000000
    31  C    0.000000   0.000000   0.000000   0.000000   0.000000   0.000000
    32  H    0.000000   0.000000   0.000000   0.000000   0.000000   0.000000
    33  H    0.000000   0.000000   0.000000   0.000000   0.000000   0.000000
    34  H    0.000000   0.000000   0.000000   0.000000   0.000000   0.000000
             25         26         27         28         29         30
     1  C    0.000000   0.000000   0.000000   0.000000   0.000000   0.000000
     2  C    0.000000   0.000000   0.000000   0.000000   0.000000   0.000000
     3  C    0.000000   0.000000   0.000000   0.000000   0.000000   0.000000
     4  C    0.000000   0.000000   0.000000   0.000000   0.000000   0.000000
     5  N    0.000000   0.000000   0.000000   0.000000   0.000000   0.000000
     6  C    0.000000   0.000000   0.000000   0.000000   0.000000   0.000000
     7  O    0.000000   0.000000   0.000000   0.000000   0.000000   0.000000
     8  O    0.000000   0.000000   0.000000   0.000000   0.000000   0.000000
     9  C    0.000000   0.000000   0.000000   0.000000   0.000000   0.000000
    10  H    0.000000   0.000000   0.000000   0.000000   0.000000   0.000000
    11  H    0.000000   0.000000   0.000000   0.000000   0.000000   0.000000
    12  H    0.000000   0.000000   0.000000   0.000000   0.000000   0.000000
    13  H    0.000000   0.000000   0.000000   0.000000   0.000000   0.000000
    14  C    0.000000   0.000000   0.000000   0.000000   0.000000   0.000000
    15  C    0.000000   0.000000   0.000000   0.000000   0.000000   0.000000
    16  H    0.000000   0.000000   0.000000   0.000000   0.000000   0.000000
    17  H    0.000000   0.000000   0.000000   0.000000   0.000000   0.000000
    18  C    0.000000   0.000000   0.000000   0.000000   0.000000   0.000000
    19  H    0.000000   0.000000   0.000000   0.000000   0.000000   0.000000
    20  O    0.000000   0.000000   0.000000   0.000000   0.000000   0.000000
    21  N    0.000000   0.000000   0.000000   0.000000   0.000000   0.000000
    22  H    0.000000   0.000000   0.000000   0.000000   0.000000   0.000000
    23  H    0.000000   0.000000   0.000000   0.000000   0.000000   0.000000
    24  H    0.000000   0.000000   0.000000   0.000000   0.000000   0.000000
    25  H    0.899511   0.000000   0.000000   0.000000   0.000000   0.000000
    26  H    0.000000   0.884661   0.000000   0.000000   0.000000   0.000000
    27  C    0.000000   0.000000   4.090197   0.000000   0.000000   0.000000
    28  H    0.000000   0.000000   0.000000   0.957226   0.000000   0.000000
    29  H    0.000000   0.000000   0.000000   0.000000   0.950876   0.000000
    30  H    0.000000   0.000000   0.000000   0.000000   0.000000   0.942080
    31  C    0.000000   0.000000   0.000000   0.000000   0.000000   0.000000
    32  H    0.000000   0.000000   0.000000   0.000000   0.000000   0.000000
    33  H    0.000000   0.000000   0.000000   0.000000   0.000000   0.000000
    34  H    0.000000   0.000000   0.000000   0.000000   0.000000   0.000000
             31         32         33         34
     1  C    0.000000   0.000000   0.000000   0.000000
     2  C    0.000000   0.000000   0.000000   0.000000
     3  C    0.000000   0.000000   0.000000   0.000000
     4  C    0.000000   0.000000   0.000000   0.000000
     5  N    0.000000   0.000000   0.000000   0.000000
     6  C    0.000000   0.000000   0.000000   0.000000
     7  O    0.000000   0.000000   0.000000   0.000000
     8  O    0.000000   0.000000   0.000000   0.000000
     9  C    0.000000   0.000000   0.000000   0.000000
    10  H    0.000000   0.000000   0.000000   0.000000
    11  H    0.000000   0.000000   0.000000   0.000000
    12  H    0.000000   0.000000   0.000000   0.000000
    13  H    0.000000   0.000000   0.000000   0.000000
    14  C    0.000000   0.000000   0.000000   0.000000
    15  C    0.000000   0.000000   0.000000   0.000000
    16  H    0.000000   0.000000   0.000000   0.000000
    17  H    0.000000   0.000000   0.000000   0.000000
    18  C    0.000000   0.000000   0.000000   0.000000
    19  H    0.000000   0.000000   0.000000   0.000000
    20  O    0.000000   0.000000   0.000000   0.000000
    21  N    0.000000   0.000000   0.000000   0.000000
    22  H    0.000000   0.000000   0.000000   0.000000
    23  H    0.000000   0.000000   0.000000   0.000000
    24  H    0.000000   0.000000   0.000000   0.000000
    25  H    0.000000   0.000000   0.000000   0.000000
    26  H    0.000000   0.000000   0.000000   0.000000
    27  C    0.000000   0.000000   0.000000   0.000000
    28  H    0.000000   0.000000   0.000000   0.000000
    29  H    0.000000   0.000000   0.000000   0.000000
    30  H    0.000000   0.000000   0.000000   0.000000
    31  C    4.075216   0.000000   0.000000   0.000000
    32  H    0.000000   0.938769   0.000000   0.000000
    33  H    0.000000   0.000000   0.955711   0.000000
    34  H    0.000000   0.000000   0.000000   0.961143
 Mulliken atomic charges:
              1
     1  C   -0.070844
     2  C   -0.103522
     3  C   -0.203804
     4  C   -0.019860
     5  N   -0.005695
     6  C    0.345068
     7  O   -0.416219
     8  O   -0.265002
     9  C    0.084707
    10  H    0.037103
    11  H    0.035337
    12  H    0.045116
    13  H    0.092321
    14  C   -0.095223
    15  C   -0.100239
    16  H    0.069845
    17  H    0.066172
    18  C    0.266732
    19  H    0.089729
    20  O   -0.351627
    21  N   -0.073443
    22  H    0.103221
    23  H    0.063235
    24  H    0.062281
    25  H    0.100489
    26  H    0.115339
    27  C   -0.090197
    28  H    0.042774
    29  H    0.049124
    30  H    0.057920
    31  C   -0.075216
    32  H    0.061231
    33  H    0.044289
    34  H    0.038857
 Sum of Mulliken charges=   0.00000
 Atomic charges with hydrogens summed into heavy atoms:
              1
     1  C    0.054673
     2  C   -0.003032
     3  C   -0.088465
     4  C    0.083361
     5  N    0.086626
     6  C    0.345068
     7  O   -0.416219
     8  O   -0.265002
     9  C    0.202263
    10  H    0.000000
    11  H    0.000000
    12  H    0.000000
    13  H    0.000000
    14  C    0.040793
    15  C   -0.010510
    16  H    0.000000
    17  H    0.000000
    18  C    0.266732
    19  H    0.000000
    20  O   -0.351627
    21  N   -0.073443
    22  H    0.000000
    23  H    0.000000
    24  H    0.000000
    25  H    0.000000
    26  H    0.000000
    27  C    0.059621
    28  H    0.000000
    29  H    0.000000
    30  H    0.000000
    31  C    0.069160
    32  H    0.000000
    33  H    0.000000
    34  H    0.000000
 Sum of Mulliken charges=   0.00000
 1\1\GINC-WOLF01\FOpt\RPM3\ZDO\C11H18N2O3\XDANEK7\16-Dec-2012\0\\# PM3 
 Opt NoSymm\\produkt\\0,1\C,-2.0306894089,3.4902796746,0.0317943738\C,-
 3.0710331253,2.5806838349,-0.512308253\C,-2.8562671957,1.2929445605,-0
 .7823238464\C,-1.5414313018,0.6057134066,-0.5613639941\N,-1.6167395919
 ,-0.3341693509,0.5963199718\C,-2.2586781091,-1.5852816492,0.3934858086
 \O,-2.3695583093,-2.1925533648,-0.6604416907\O,-2.6826159013,-2.101650
 6819,1.5869740015\C,-3.1886327829,-3.4196282805,1.5917555053\H,-2.4381
 728002,-4.1441586629,1.2588116487\H,-4.0892540928,-3.5094275563,0.9752
 959863\H,-3.4285741889,-3.5724526089,2.6469705069\H,-1.8398635825,0.12
 5926749,1.4546995189\C,-0.8252725981,2.7470250328,0.5851425992\C,-0.40
 22429396,1.628904483,-0.3668113961\H,-1.0512654863,2.3390718337,1.5911
 487302\H,0.0150720925,3.4524268378,0.7373983548\C,0.8979414042,0.97186
 93438,0.0994606738\H,-0.2159510022,2.1020547639,-1.365686346\O,1.25271
 17223,0.9477762851,1.266084779\N,1.8197522769,0.4846665803,-0.90136530
 47\H,-1.2977761622,-0.0064551486,-1.4753179144\H,-2.4721505248,4.13022
 07184,0.8209932775\H,-1.7227413359,4.1811519075,-0.7800366532\H,-4.050
 9070254,3.0323022231,-0.7083089687\H,-3.6559849303,0.6674021094,-1.198
 4343284\C,1.2759013547,-0.3010428148,-2.0325128251\H,1.2523917591,-1.3
 800842731,-1.8171069851\H,1.9160819406,-0.1393123454,-2.9099277217\H,0
 .2516868321,0.0116055552,-2.2927784549\C,3.1157787467,-0.0495753484,-0
 .4201690997\H,3.5966757245,0.6807211548,0.2434426663\H,3.7732190682,-0
 .2140459442,-1.2840257389\H,3.0121694734,-0.9988490242,0.1255811185\\V
 ersion=EM64L-G03RevE.01\HF=-0.1913535\RMSD=0.000e+00\RMSF=2.354e-06\Th
 ermal=0.\Dipole=-0.5409734,0.4329486,-0.3479027\PG=C01 [X(C11H18N2O3)]
 \\@


 HE THAT RISETH LATE MUST TROT ALL DAY.

                  -- BENJAMIN FRANKLIN
 Job cpu time:  0 days  0 hours  0 minutes  8.9 seconds.
 File lengths (MBytes):  RWF=     13 Int=      0 D2E=      0 Chk=      7 Scr=      1
 Normal termination of Gaussian 03 at Sun Dec 16 15:11:27 2012.
