 Entering Gaussian System, Link 0=g03
 Input=produkt.com
 Output=produkt.log
 Initial command:
 /software/ncbr/softrepo/secret/gaussian/03.E1/x86_64/node/l1.exe /scratch/xdanek7/QM/05_Optimalizace_TS/produkt/Gau-16380.inp -scrdir=/scratch/xdanek7/QM/05_Optimalizace_TS/produkt/
 Entering Link 1 = /software/ncbr/softrepo/secret/gaussian/03.E1/x86_64/node/l1.exe PID=     16382.
  
 Copyright (c) 1988,1990,1992,1993,1995,1998,2003,2004,2007, Gaussian, Inc.
                  All Rights Reserved.
  
 This is the Gaussian(R) 03 program.  It is based on the
 the Gaussian(R) 98 system (copyright 1998, Gaussian, Inc.),
 the Gaussian(R) 94 system (copyright 1995, Gaussian, Inc.),
 the Gaussian 92(TM) system (copyright 1992, Gaussian, Inc.),
 the Gaussian 90(TM) system (copyright 1990, Gaussian, Inc.),
 the Gaussian 88(TM) system (copyright 1988, Gaussian, Inc.),
 the Gaussian 86(TM) system (copyright 1986, Carnegie Mellon
 University), and the Gaussian 82(TM) system (copyright 1983,
 Carnegie Mellon University). Gaussian is a federally registered
 trademark of Gaussian, Inc.
  
 This software contains proprietary and confidential information,
 including trade secrets, belonging to Gaussian, Inc.
  
 This software is provided under written license and may be
 used, copied, transmitted, or stored only in accord with that
 written license.
  
 The following legend is applicable only to US Government
 contracts under FAR:
  
                    RESTRICTED RIGHTS LEGEND
  
 Use, reproduction and disclosure by the US Government is
 subject to restrictions as set forth in subparagraphs (a)
 and (c) of the Commercial Computer Software - Restricted
 Rights clause in FAR 52.227-19.
  
 Gaussian, Inc.
 340 Quinnipiac St., Bldg. 40, Wallingford CT 06492
  
  
 ---------------------------------------------------------------
 Warning -- This program may not be used in any manner that
 competes with the business of Gaussian, Inc. or will provide
 assistance to any competitor of Gaussian, Inc.  The licensee
 of this program is prohibited from giving any competitor of
 Gaussian, Inc. access to this program.  By using this program,
 the user acknowledges that Gaussian, Inc. is engaged in the
 business of creating and licensing software in the field of
 computational chemistry and represents and warrants to the
 licensee that it is not a competitor of Gaussian, Inc. and that
 it will not use this program in any manner prohibited above.
 ---------------------------------------------------------------
  

 Cite this work as:
 Gaussian 03, Revision E.01,
 M. J. Frisch, G. W. Trucks, H. B. Schlegel, G. E. Scuseria, 
 M. A. Robb, J. R. Cheeseman, J. A. Montgomery, Jr., T. Vreven, 
 K. N. Kudin, J. C. Burant, J. M. Millam, S. S. Iyengar, J. Tomasi, 
 V. Barone, B. Mennucci, M. Cossi, G. Scalmani, N. Rega, 
 G. A. Petersson, H. Nakatsuji, M. Hada, M. Ehara, K. Toyota, 
 R. Fukuda, J. Hasegawa, M. Ishida, T. Nakajima, Y. Honda, O. Kitao, 
 H. Nakai, M. Klene, X. Li, J. E. Knox, H. P. Hratchian, J. B. Cross, 
 V. Bakken, C. Adamo, J. Jaramillo, R. Gomperts, R. E. Stratmann, 
 O. Yazyev, A. J. Austin, R. Cammi, C. Pomelli, J. W. Ochterski, 
 P. Y. Ayala, K. Morokuma, G. A. Voth, P. Salvador, J. J. Dannenberg, 
 V. G. Zakrzewski, S. Dapprich, A. D. Daniels, M. C. Strain, 
 O. Farkas, D. K. Malick, A. D. Rabuck, K. Raghavachari, 
 J. B. Foresman, J. V. Ortiz, Q. Cui, A. G. Baboul, S. Clifford, 
 J. Cioslowski, B. B. Stefanov, G. Liu, A. Liashenko, P. Piskorz, 
 I. Komaromi, R. L. Martin, D. J. Fox, T. Keith, M. A. Al-Laham, 
 C. Y. Peng, A. Nanayakkara, M. Challacombe, P. M. W. Gill, 
 B. Johnson, W. Chen, M. W. Wong, C. Gonzalez, and J. A. Pople, 
 Gaussian, Inc., Wallingford CT, 2004.
 
 ******************************************
 Gaussian 03:  EM64L-G03RevE.01 11-Sep-2007
                16-Dec-2012 
 ******************************************
 ----------------------------------------------------
 # PM3 Opt=(CalcFC,TS,NoEigenTest,MaxCycle=60) NoSymm
 ----------------------------------------------------
 1/5=1,6=60,10=4,11=1,14=-1,18=20,26=3,38=1/1,3;
 2/9=110,15=1,17=6,18=5,40=1/2;
 3/5=2,11=9,12=1,16=1,25=1,30=1/1;
 4/5=3,11=1,20=7,22=2,24=3,35=1/1,2;
 6/7=2,8=2,9=2,10=2/1;
 7/25=1,30=1/16;
 1/5=1,6=60,10=4,11=1,14=-1,18=20/3(3);
 2/9=110,15=1/2;
 6/7=2,8=2,9=2,10=2/1;
 99//99;
 2/9=110,15=1/2;
 3/5=2,11=9,12=1,16=1,25=1,30=1/1;
 4/5=5,11=1,16=3,20=7,22=1,24=3,35=1/1,2;
 7/30=1/16;
 1/5=1,6=60,11=1,14=-1,18=20/3(-4);
 2/9=110,15=1/2;
 6/7=2,8=2,9=2,10=2/1;
 99//99;
 -------
 produkt
 -------
 Symbolic Z-matrix:
 Charge =  0 Multiplicity = 1
 C                    -2.00607   2.98093   0.58625 
 C                    -2.78146   2.91116  -0.61125 
 C                    -3.13938   1.79097  -1.35033 
 C                    -2.99602   0.44108  -1.09478 
 N                    -2.59509  -0.12961   0.0973 
 C                    -2.37704  -1.54724   0.19383 
 O                    -2.50467  -2.35705  -0.70696 
 O                    -2.0541   -1.87014   1.47432 
 C                    -1.60021  -3.18511   1.72614 
 H                    -0.6687   -3.39058   1.18661 
 H                    -2.3565   -3.93539   1.47316 
 H                    -1.4236   -3.16023   2.80447 
 H                    -2.19139   0.45804   0.80624 
 C                    -0.42775   3.22502   0.21897 
 C                     0.16878   2.14235  -0.49051 
 H                     0.02654   3.38743   1.21486 
 H                    -0.38261   4.17287  -0.34518 
 C                     0.6228    0.95598   0.17851 
 H                     0.35269   2.24702  -1.56724 
 O                     0.26941   0.61885   1.31836 
 N                     1.58156   0.09311  -0.48928 
 H                    -3.29177  -0.26851  -1.88664 
 H                    -2.04039   2.09548   1.24827 
 H                    -2.2941    3.85413   1.20077 
 H                    -3.07668   3.87709  -1.04712 
 H                    -3.6085    2.00833  -2.32189 
 C                     1.49904  -0.00776  -1.96183 
 H                     2.47585  -0.31787  -2.35601 
 H                     1.24784   0.97213  -2.39804 
 H                     0.7469   -0.73756  -2.29753 
 C                     1.90096  -1.19914   0.15524 
 H                     2.20173  -1.02864   1.1971 
 H                     2.74139  -1.66931  -0.3724 
 H                     1.05408  -1.90377   0.15303 
 

 GradGradGradGradGradGradGradGradGradGradGradGradGradGradGradGradGradGrad
 Berny optimization.
 Initialization pass.
                           ----------------------------
                           !    Initial Parameters    !
                           ! (Angstroms and Degrees)  !
 --------------------------                            --------------------------
 ! Name  Definition              Value          Derivative Info.                !
 --------------------------------------------------------------------------------
 ! R1    R(1,2)                  1.4283         calculate D2E/DX2 analytically  !
 ! R2    R(1,14)                 1.6388         calculate D2E/DX2 analytically  !
 ! R3    R(1,23)                 1.1061         calculate D2E/DX2 analytically  !
 ! R4    R(1,24)                 1.1059         calculate D2E/DX2 analytically  !
 ! R5    R(2,3)                  1.3889         calculate D2E/DX2 analytically  !
 ! R6    R(2,25)                 1.1001         calculate D2E/DX2 analytically  !
 ! R7    R(3,4)                  1.3813         calculate D2E/DX2 analytically  !
 ! R8    R(3,26)                 1.1006         calculate D2E/DX2 analytically  !
 ! R9    R(4,5)                  1.3811         calculate D2E/DX2 analytically  !
 ! R10   R(4,22)                 1.1036         calculate D2E/DX2 analytically  !
 ! R11   R(5,6)                  1.4375         calculate D2E/DX2 analytically  !
 ! R12   R(5,13)                 1.0054         calculate D2E/DX2 analytically  !
 ! R13   R(6,7)                  1.218          calculate D2E/DX2 analytically  !
 ! R14   R(6,8)                  1.3595         calculate D2E/DX2 analytically  !
 ! R15   R(8,9)                  1.4137         calculate D2E/DX2 analytically  !
 ! R16   R(9,10)                 1.0959         calculate D2E/DX2 analytically  !
 ! R17   R(9,11)                 1.0949         calculate D2E/DX2 analytically  !
 ! R18   R(9,12)                 1.093          calculate D2E/DX2 analytically  !
 ! R19   R(14,15)                1.4253         calculate D2E/DX2 analytically  !
 ! R20   R(14,16)                1.1066         calculate D2E/DX2 analytically  !
 ! R21   R(14,17)                1.104          calculate D2E/DX2 analytically  !
 ! R22   R(15,18)                1.4357         calculate D2E/DX2 analytically  !
 ! R23   R(15,19)                1.0973         calculate D2E/DX2 analytically  !
 ! R24   R(18,20)                1.2401         calculate D2E/DX2 analytically  !
 ! R25   R(18,21)                1.4525         calculate D2E/DX2 analytically  !
 ! R26   R(21,27)                1.4783         calculate D2E/DX2 analytically  !
 ! R27   R(21,31)                1.479          calculate D2E/DX2 analytically  !
 ! R28   R(27,28)                1.098          calculate D2E/DX2 analytically  !
 ! R29   R(27,29)                1.1016         calculate D2E/DX2 analytically  !
 ! R30   R(27,30)                1.1005         calculate D2E/DX2 analytically  !
 ! R31   R(31,32)                1.0977         calculate D2E/DX2 analytically  !
 ! R32   R(31,33)                1.0981         calculate D2E/DX2 analytically  !
 ! R33   R(31,34)                1.1017         calculate D2E/DX2 analytically  !
 ! A1    A(2,1,14)             110.0117         calculate D2E/DX2 analytically  !
 ! A2    A(2,1,23)             116.4773         calculate D2E/DX2 analytically  !
 ! A3    A(2,1,24)             111.2872         calculate D2E/DX2 analytically  !
 ! A4    A(14,1,23)            106.4548         calculate D2E/DX2 analytically  !
 ! A5    A(14,1,24)            104.9378         calculate D2E/DX2 analytically  !
 ! A6    A(23,1,24)            106.9423         calculate D2E/DX2 analytically  !
 ! A7    A(1,2,3)              128.7123         calculate D2E/DX2 analytically  !
 ! A8    A(1,2,25)             115.7845         calculate D2E/DX2 analytically  !
 ! A9    A(3,2,25)             115.3514         calculate D2E/DX2 analytically  !
 ! A10   A(2,3,4)              131.5261         calculate D2E/DX2 analytically  !
 ! A11   A(2,3,26)             114.8538         calculate D2E/DX2 analytically  !
 ! A12   A(4,3,26)             113.613          calculate D2E/DX2 analytically  !
 ! A13   A(3,4,5)              126.414          calculate D2E/DX2 analytically  !
 ! A14   A(3,4,22)             117.8898         calculate D2E/DX2 analytically  !
 ! A15   A(5,4,22)             115.5567         calculate D2E/DX2 analytically  !
 ! A16   A(4,5,6)              120.6285         calculate D2E/DX2 analytically  !
 ! A17   A(4,5,13)             118.9237         calculate D2E/DX2 analytically  !
 ! A18   A(6,5,13)             117.913          calculate D2E/DX2 analytically  !
 ! A19   A(5,6,7)              126.1651         calculate D2E/DX2 analytically  !
 ! A20   A(5,6,8)              109.4814         calculate D2E/DX2 analytically  !
 ! A21   A(7,6,8)              124.3024         calculate D2E/DX2 analytically  !
 ! A22   A(6,8,9)              117.7086         calculate D2E/DX2 analytically  !
 ! A23   A(8,9,10)             111.0752         calculate D2E/DX2 analytically  !
 ! A24   A(8,9,11)             111.9903         calculate D2E/DX2 analytically  !
 ! A25   A(8,9,12)             101.914          calculate D2E/DX2 analytically  !
 ! A26   A(10,9,11)            110.1743         calculate D2E/DX2 analytically  !
 ! A27   A(10,9,12)            110.6489         calculate D2E/DX2 analytically  !
 ! A28   A(11,9,12)            110.8032         calculate D2E/DX2 analytically  !
 ! A29   A(1,14,15)            113.6732         calculate D2E/DX2 analytically  !
 ! A30   A(1,14,16)            102.4471         calculate D2E/DX2 analytically  !
 ! A31   A(1,14,17)            106.3673         calculate D2E/DX2 analytically  !
 ! A32   A(15,14,16)           112.8089         calculate D2E/DX2 analytically  !
 ! A33   A(15,14,17)           112.3781         calculate D2E/DX2 analytically  !
 ! A34   A(16,14,17)           108.488          calculate D2E/DX2 analytically  !
 ! A35   A(14,15,18)           121.8777         calculate D2E/DX2 analytically  !
 ! A36   A(14,15,19)           119.0865         calculate D2E/DX2 analytically  !
 ! A37   A(18,15,19)           118.8859         calculate D2E/DX2 analytically  !
 ! A38   A(15,18,20)           124.2532         calculate D2E/DX2 analytically  !
 ! A39   A(15,18,21)           119.0391         calculate D2E/DX2 analytically  !
 ! A40   A(20,18,21)           116.6927         calculate D2E/DX2 analytically  !
 ! A41   A(18,21,27)           117.4938         calculate D2E/DX2 analytically  !
 ! A42   A(18,21,31)           117.4688         calculate D2E/DX2 analytically  !
 ! A43   A(27,21,31)           112.7387         calculate D2E/DX2 analytically  !
 ! A44   A(21,27,28)           109.0988         calculate D2E/DX2 analytically  !
 ! A45   A(21,27,29)           110.2711         calculate D2E/DX2 analytically  !
 ! A46   A(21,27,30)           112.7849         calculate D2E/DX2 analytically  !
 ! A47   A(28,27,29)           108.1745         calculate D2E/DX2 analytically  !
 ! A48   A(28,27,30)           108.1321         calculate D2E/DX2 analytically  !
 ! A49   A(29,27,30)           108.2556         calculate D2E/DX2 analytically  !
 ! A50   A(21,31,32)           109.6984         calculate D2E/DX2 analytically  !
 ! A51   A(21,31,33)           109.2692         calculate D2E/DX2 analytically  !
 ! A52   A(21,31,34)           113.0763         calculate D2E/DX2 analytically  !
 ! A53   A(32,31,33)           108.2316         calculate D2E/DX2 analytically  !
 ! A54   A(32,31,34)           108.172          calculate D2E/DX2 analytically  !
 ! A55   A(33,31,34)           108.2716         calculate D2E/DX2 analytically  !
 ! D1    D(14,1,2,3)            92.7387         calculate D2E/DX2 analytically  !
 ! D2    D(14,1,2,25)          -82.5317         calculate D2E/DX2 analytically  !
 ! D3    D(23,1,2,3)           -28.4721         calculate D2E/DX2 analytically  !
 ! D4    D(23,1,2,25)          156.2575         calculate D2E/DX2 analytically  !
 ! D5    D(24,1,2,3)          -151.3918         calculate D2E/DX2 analytically  !
 ! D6    D(24,1,2,25)           33.3379         calculate D2E/DX2 analytically  !
 ! D7    D(2,1,14,15)          -64.9296         calculate D2E/DX2 analytically  !
 ! D8    D(2,1,14,16)          173.0491         calculate D2E/DX2 analytically  !
 ! D9    D(2,1,14,17)           59.2656         calculate D2E/DX2 analytically  !
 ! D10   D(23,1,14,15)          62.1069         calculate D2E/DX2 analytically  !
 ! D11   D(23,1,14,16)         -59.9144         calculate D2E/DX2 analytically  !
 ! D12   D(23,1,14,17)        -173.6978         calculate D2E/DX2 analytically  !
 ! D13   D(24,1,14,15)         175.2655         calculate D2E/DX2 analytically  !
 ! D14   D(24,1,14,16)          53.2442         calculate D2E/DX2 analytically  !
 ! D15   D(24,1,14,17)         -60.5392         calculate D2E/DX2 analytically  !
 ! D16   D(1,2,3,4)              8.1039         calculate D2E/DX2 analytically  !
 ! D17   D(1,2,3,26)          -170.8468         calculate D2E/DX2 analytically  !
 ! D18   D(25,2,3,4)          -176.6086         calculate D2E/DX2 analytically  !
 ! D19   D(25,2,3,26)            4.4407         calculate D2E/DX2 analytically  !
 ! D20   D(2,3,4,5)              9.4058         calculate D2E/DX2 analytically  !
 ! D21   D(2,3,4,22)          -175.097          calculate D2E/DX2 analytically  !
 ! D22   D(26,3,4,5)          -171.6334         calculate D2E/DX2 analytically  !
 ! D23   D(26,3,4,22)            3.8638         calculate D2E/DX2 analytically  !
 ! D24   D(3,4,5,6)           -174.6305         calculate D2E/DX2 analytically  !
 ! D25   D(3,4,5,13)           -13.0589         calculate D2E/DX2 analytically  !
 ! D26   D(22,4,5,6)             9.7807         calculate D2E/DX2 analytically  !
 ! D27   D(22,4,5,13)          171.3523         calculate D2E/DX2 analytically  !
 ! D28   D(4,5,6,7)              0.4114         calculate D2E/DX2 analytically  !
 ! D29   D(4,5,6,8)           -177.0699         calculate D2E/DX2 analytically  !
 ! D30   D(13,5,6,7)          -161.3415         calculate D2E/DX2 analytically  !
 ! D31   D(13,5,6,8)            21.1772         calculate D2E/DX2 analytically  !
 ! D32   D(5,6,8,9)           -170.3624         calculate D2E/DX2 analytically  !
 ! D33   D(7,6,8,9)             12.099          calculate D2E/DX2 analytically  !
 ! D34   D(6,8,9,10)            62.264          calculate D2E/DX2 analytically  !
 ! D35   D(6,8,9,11)           -61.3933         calculate D2E/DX2 analytically  !
 ! D36   D(6,8,9,12)          -179.8608         calculate D2E/DX2 analytically  !
 ! D37   D(1,14,15,18)         -80.0046         calculate D2E/DX2 analytically  !
 ! D38   D(1,14,15,19)         104.4964         calculate D2E/DX2 analytically  !
 ! D39   D(16,14,15,18)         36.0787         calculate D2E/DX2 analytically  !
 ! D40   D(16,14,15,19)       -139.4203         calculate D2E/DX2 analytically  !
 ! D41   D(17,14,15,18)        159.115          calculate D2E/DX2 analytically  !
 ! D42   D(17,14,15,19)        -16.3841         calculate D2E/DX2 analytically  !
 ! D43   D(14,15,18,20)         17.9938         calculate D2E/DX2 analytically  !
 ! D44   D(14,15,18,21)       -160.5486         calculate D2E/DX2 analytically  !
 ! D45   D(19,15,18,20)       -166.4984         calculate D2E/DX2 analytically  !
 ! D46   D(19,15,18,21)         14.9592         calculate D2E/DX2 analytically  !
 ! D47   D(15,18,21,27)        -33.121          calculate D2E/DX2 analytically  !
 ! D48   D(15,18,21,31)       -172.7322         calculate D2E/DX2 analytically  !
 ! D49   D(20,18,21,27)        148.2275         calculate D2E/DX2 analytically  !
 ! D50   D(20,18,21,31)          8.6162         calculate D2E/DX2 analytically  !
 ! D51   D(18,21,27,28)        156.5448         calculate D2E/DX2 analytically  !
 ! D52   D(18,21,27,29)         37.8751         calculate D2E/DX2 analytically  !
 ! D53   D(18,21,27,30)        -83.2791         calculate D2E/DX2 analytically  !
 ! D54   D(31,21,27,28)        -62.0178         calculate D2E/DX2 analytically  !
 ! D55   D(31,21,27,29)        179.3124         calculate D2E/DX2 analytically  !
 ! D56   D(31,21,27,30)         58.1582         calculate D2E/DX2 analytically  !
 ! D57   D(18,21,31,32)        -52.9545         calculate D2E/DX2 analytically  !
 ! D58   D(18,21,31,33)       -171.4563         calculate D2E/DX2 analytically  !
 ! D59   D(18,21,31,34)         67.8827         calculate D2E/DX2 analytically  !
 ! D60   D(27,21,31,32)        165.5978         calculate D2E/DX2 analytically  !
 ! D61   D(27,21,31,33)         47.096          calculate D2E/DX2 analytically  !
 ! D62   D(27,21,31,34)        -73.565          calculate D2E/DX2 analytically  !
 --------------------------------------------------------------------------------
 Trust Radius=3.00D-01 FncErr=1.00D-07 GrdErr=1.00D-06
 Number of steps in this run=  60 maximum allowed number of steps= 204.
 Search for a saddle point of order  1.
 GradGradGradGradGradGradGradGradGradGradGradGradGradGradGradGradGradGrad

                          Input orientation:                          
 ---------------------------------------------------------------------
 Center     Atomic     Atomic              Coordinates (Angstroms)
 Number     Number      Type              X           Y           Z
 ---------------------------------------------------------------------
    1          6             0       -2.006067    2.980929    0.586254
    2          6             0       -2.781456    2.911163   -0.611254
    3          6             0       -3.139380    1.790973   -1.350333
    4          6             0       -2.996019    0.441083   -1.094783
    5          7             0       -2.595087   -0.129611    0.097304
    6          6             0       -2.377037   -1.547235    0.193825
    7          8             0       -2.504672   -2.357048   -0.706957
    8          8             0       -2.054095   -1.870140    1.474318
    9          6             0       -1.600206   -3.185111    1.726141
   10          1             0       -0.668701   -3.390578    1.186607
   11          1             0       -2.356495   -3.935393    1.473161
   12          1             0       -1.423595   -3.160226    2.804468
   13          1             0       -2.191392    0.458036    0.806239
   14          6             0       -0.427745    3.225017    0.218971
   15          6             0        0.168781    2.142345   -0.490508
   16          1             0        0.026536    3.387427    1.214864
   17          1             0       -0.382606    4.172873   -0.345182
   18          6             0        0.622804    0.955975    0.178508
   19          1             0        0.352685    2.247016   -1.567237
   20          8             0        0.269409    0.618854    1.318356
   21          7             0        1.581561    0.093109   -0.489275
   22          1             0       -3.291768   -0.268508   -1.886636
   23          1             0       -2.040391    2.095482    1.248265
   24          1             0       -2.294100    3.854131    1.200772
   25          1             0       -3.076683    3.877093   -1.047121
   26          1             0       -3.608496    2.008328   -2.321886
   27          6             0        1.499038   -0.007760   -1.961832
   28          1             0        2.475847   -0.317865   -2.356013
   29          1             0        1.247843    0.972127   -2.398035
   30          1             0        0.746903   -0.737559   -2.297534
   31          6             0        1.900962   -1.199144    0.155241
   32          1             0        2.201728   -1.028643    1.197101
   33          1             0        2.741388   -1.669310   -0.372395
   34          1             0        1.054085   -1.903770    0.153026
 ---------------------------------------------------------------------
                    Distance matrix (angstroms):
                    1          2          3          4          5
     1  C    0.000000
     2  C    1.428328   0.000000
     3  C    2.539835   1.388947   0.000000
     4  C    3.202610   2.526090   1.381326   0.000000
     5  N    3.203354   3.127794   2.465877   1.381126   0.000000
     6  C    4.560251   4.548518   3.756225   2.448889   1.437540
     7  O    5.514980   5.276345   4.245335   2.867293   2.369913
     8  O    4.931920   5.266832   4.749763   3.581795   2.284356
     9  C    6.283639   6.635007   6.049393   4.801582   3.602635
    10  H    6.537972   6.885345   6.276049   5.030186   3.940996
    11  H    6.981756   7.169429   6.432441   5.114379   4.053873
    12  H    6.555420   7.097373   6.687351   5.535892   4.229156
    13  H    2.539238   2.894010   2.706696   2.064363   1.005429
    14  C    1.638773   2.515499   3.445600   4.009024   3.995711
    15  C    2.567607   3.051157   3.436087   3.643542   3.625779
    16  H    2.166072   3.383246   4.376291   4.811575   4.526743
    17  H    2.218993   2.723451   3.779362   4.617151   4.858213
    18  C    3.343301   4.004431   4.145914   3.870693   3.397045
    19  H    3.277173   3.343327   3.528391   3.833853   4.136232
    20  O    3.360530   4.276196   4.485043   4.064217   3.202578
    21  N    4.729412   5.195404   5.090329   4.630547   4.223514
    22  H    4.281011   3.463716   2.133613   1.103639   2.107291
    23  H    1.106098   2.161556   2.837819   3.023266   2.565821
    24  H    1.105928   2.100034   3.388105   4.172668   4.144688
    25  H    2.148777   1.100073   2.108973   3.437287   4.194678
    26  H    3.459915   2.103656   1.100558   2.082587   3.383823
    27  C    5.264102   5.354139   5.012414   4.599866   4.584403
    28  H    6.294961   6.411711   6.081888   5.666394   5.636362
    29  H    4.850690   4.815361   4.584312   4.471112   4.712606
    30  H    5.451810   5.348460   4.732215   4.104299   4.156170
    31  C    5.737914   6.277514   6.050835   5.313504   4.621873
    32  H    5.844257   6.604873   6.554929   5.867657   5.002724
    33  H    6.714318   7.179108   6.892993   6.155765   5.573980
    34  H    5.780355   6.203151   5.787604   4.843419   4.057980
                    6          7          8          9         10
     6  C    0.000000
     7  O    1.217989   0.000000
     8  O    1.359493   2.279925   0.000000
     9  C    2.373625   2.724649   1.413711   0.000000
    10  H    2.702210   2.832765   2.076975   1.095908   0.000000
    11  H    2.709321   2.695560   2.087275   1.094941   1.796548
    12  H    3.213448   3.760841   1.957333   1.092978   1.800111
    13  H    2.104905   3.211324   2.426022   3.803714   4.156332
    14  C    5.155071   6.027472   5.493772   6.688495   6.690327
    15  C    4.534589   5.238200   4.990166   6.035283   5.841860
    16  H    5.583061   6.565014   5.660243   6.790136   6.813626
    17  H    6.081769   6.875603   6.528588   7.740340   7.722307
    18  C    3.907089   4.641258   4.102662   4.948286   4.645080
    19  H    4.994904   5.486527   5.656379   6.645910   6.356835
    20  O    3.600026   4.544602   3.408531   4.258157   4.119824
    21  N    4.339107   4.769482   4.574717   5.077247   4.473068
    22  H    2.607718   2.524512   3.923400   4.941671   5.106136
    23  H    3.807172   4.885025   3.972083   5.320413   5.655280
    24  H    5.495050   6.500963   5.735827   7.092844   7.424819
    25  H    5.608278   6.269563   6.358776   7.729534   7.975397
    26  H    4.526292   4.783611   5.645338   6.884153   7.078143
    27  C    4.694763   4.808696   5.282077   5.770790   5.104431
    28  H    5.618141   5.628785   6.131995   6.441994   5.646229
    29  H    5.119051   5.293819   5.828927   6.511746   5.962885
    30  H    4.076941   3.965529   4.832721   5.262071   4.602356
    31  C    4.292311   4.636134   4.222875   4.320876   3.531185
    32  H    4.715993   5.247885   4.347068   4.402833   3.717285
    33  H    5.151095   5.301515   5.142698   5.054794   4.125768
    34  H    3.449838   3.689144   3.377533   3.340926   2.499376
                   11         12         13         14         15
    11  H    0.000000
    12  H    1.800990   0.000000
    13  H    4.446826   4.204076   0.000000
    14  C    7.520940   6.960448   3.333394   0.000000
    15  C    6.868181   6.442809   3.176298   1.425266   0.000000
    16  H    7.705144   6.892132   3.696960   1.106594   2.116307
    17  H    8.540877   8.048496   4.289230   1.103964   2.109074
    18  C    5.871783   5.294008   2.926036   2.500768   1.435686
    19  H    7.403098   7.176715   3.912309   2.180848   1.097325
    20  O    5.259325   4.399572   2.518664   2.913204   2.367095
    21  N    5.965590   5.519411   4.005834   3.787845   2.489039
    22  H    5.060535   5.818811   2.998378   4.984067   4.442610
    23  H    6.043340   5.515856   1.702768   2.221694   2.811755
    24  H    7.794535   7.247815   3.420478   2.200681   3.443316
    25  H    8.240475   8.190928   3.988563   3.007501   3.721855
    26  H    7.162242   7.600477   3.767858   4.248937   4.199968
    27  C    6.487728   6.418523   4.636643   4.349625   2.925291
    28  H    7.148469   7.065071   5.690780   5.254846   3.854257
    29  H    7.215342   7.160933   4.728636   3.838206   2.484440
    30  H    5.837411   6.050686   4.438066   4.838864   3.448683
    31  C    5.229714   4.681552   4.462892   5.000014   3.818768
    32  H    5.413206   4.502249   4.654298   5.095536   4.127477
    33  H    5.876191   5.446317   5.499736   5.860679   4.600106
    34  H    4.183576   3.840277   4.066686   5.338972   4.191533
                   16         17         18         19         20
    16  H    0.000000
    17  H    1.793897   0.000000
    18  C    2.709525   3.410797   0.000000
    19  H    3.024400   2.396455   2.188007   0.000000
    20  O    2.781132   3.977881   1.240077   3.314286   0.000000
    21  N    4.021781   4.530253   1.452476   2.703970   2.294707
    22  H    5.830635   5.528577   4.592173   4.439810   4.872511
    23  H    2.437709   3.098851   3.087955   3.698219   2.742356
    24  H    2.367142   2.478988   4.237058   4.153332   4.129458
    25  H    3.871216   2.799688   4.870452   3.832524   5.235259
    26  H    5.255851   4.358782   5.026263   4.039483   5.497285
    27  C    4.877187   4.861258   2.505519   2.560048   3.558689
    28  H    5.699077   5.690424   3.388249   3.421783   4.387117
    29  H    4.514233   4.137311   2.651322   1.765467   3.859235
    30  H    5.465471   5.403685   3.002373   3.097810   3.891339
    31  C    5.066844   5.858641   2.505747   4.152121   2.705535
    32  H    4.922748   6.009425   2.732991   4.668026   2.542205
    33  H    5.954864   6.625042   3.418189   4.740375   3.768954
    34  H    5.493644   6.264015   2.892195   4.547559   2.887446
                   21         22         23         24         25
    21  N    0.000000
    22  H    5.082590   0.000000
    23  H    4.488550   4.120922   0.000000
    24  H    5.658824   5.246292   1.777490   0.000000
    25  H    6.027351   4.235216   3.084937   2.380333   0.000000
    26  H    5.827797   2.339603   3.900324   4.188525   2.323819
    27  C    1.478313   4.798486   5.220719   6.269303   6.071738
    28  H    2.110298   5.786893   6.261906   7.266957   7.081063
    29  H    2.127770   4.733790   5.036855   5.814011   5.381944
    30  H    2.157884   4.086528   5.326145   6.524528   6.121957
    31  C    1.478964   5.656836   5.252002   6.650359   7.210465
    32  H    2.118206   6.345529   5.268619   6.637316   7.547476
    33  H    2.113050   6.376060   6.298064   7.638023   8.066461
    34  H    2.162939   5.071562   5.173910   6.742517   7.205690
                   26         27         28         29         30
    26  H    0.000000
    27  C    5.502831   0.000000
    28  H    6.513952   1.098044   0.000000
    29  H    4.966240   1.101613   1.781527   0.000000
    30  H    5.148785   1.100459   1.780115   1.784396   0.000000
    31  C    6.839456   2.462303   2.722782   3.414704   2.749731
    32  H    7.440777   3.393351   3.633864   4.223503   3.796540
    33  H    7.592533   2.613521   2.414882   3.648436   2.924430
    34  H    6.570340   2.874972   3.291167   3.849187   2.731237
                   31         32         33         34
    31  C    0.000000
    32  H    1.097726   0.000000
    33  H    1.098076   1.779046   0.000000
    34  H    1.101682   1.781298   1.782703   0.000000
 Symmetry turned off by external request.
 Stoichiometry    C11H18N2O3
 Framework group  C1[X(C11H18N2O3)]
 Deg. of freedom    96
 Full point group                 C1
 Rotational constants (GHZ):      0.5517316      0.4509223      0.3183848
 Standard basis: VSTO-3G (5D, 7F)
 Integral buffers will be    131072 words long.
 Raffenetti 1 integral format.
 Two-electron integral symmetry is turned off.
    82 basis functions,   246 primitive gaussians,    82 cartesian basis functions
    45 alpha electrons       45 beta electrons
       nuclear repulsion energy       631.0375078728 Hartrees.
 NAtoms=   34 NActive=   34 NUniq=   34 SFac= 7.50D-01 NAtFMM=   80 NAOKFM=F Big=F
 Simple Huckel Guess.
 RHF-PM3 calculation of energy, first and second derivatives.
 MO and density RWFs will be updated without deorthogonalization.
 Numerical evaluation of force-constants.
 Step-Size= 0.018897 bohr.
 Closed-shell calculation:      45 occupied levels.
 NNHCO=    0.
 References:
  H: (PM3): J. J. P. STEWART, J. COMP. CHEM.     10, 209 (1989).
  C: (PM3): J. J. P. STEWART, J. COMP. CHEM.     10, 209 (1989).
  N: (PM3): J. J. P. STEWART, J. COMP. CHEM.     10, 209 (1989).
  O: (PM3): J. J. P. STEWART, J. COMP. CHEM.     10, 209 (1989).
 Ext34=T Pulay=F Camp-King=F BShift= 0.00D+00
 It=  1 PL= 0.103D+01 DiagD=T ESCF=     21.270331 Diff= 0.169D+02 RMSDP= 0.164D+00.
 It=  2 PL= 0.930D-01 DiagD=T ESCF=      0.073298 Diff=-0.212D+02 RMSDP= 0.615D-02.
 It=  3 PL= 0.371D-01 DiagD=F ESCF=     -1.575348 Diff=-0.165D+01 RMSDP= 0.392D-02.
 It=  4 PL= 0.733D-02 DiagD=F ESCF=     -2.011851 Diff=-0.437D+00 RMSDP= 0.767D-03.
 It=  5 PL= 0.469D-02 DiagD=F ESCF=     -1.884642 Diff= 0.127D+00 RMSDP= 0.466D-03.
 It=  6 PL= 0.348D-02 DiagD=F ESCF=     -1.890593 Diff=-0.595D-02 RMSDP= 0.933D-03.
 It=  7 PL= 0.125D-02 DiagD=F ESCF=     -1.904098 Diff=-0.135D-01 RMSDP= 0.735D-04.
 It=  8 PL= 0.474D-03 DiagD=F ESCF=     -1.895378 Diff= 0.872D-02 RMSDP= 0.399D-04.
 It=  9 PL= 0.272D-03 DiagD=F ESCF=     -1.895426 Diff=-0.483D-04 RMSDP= 0.533D-04.
 It= 10 PL= 0.110D-03 DiagD=F ESCF=     -1.895479 Diff=-0.533D-04 RMSDP= 0.102D-04.
 It= 11 PL= 0.795D-04 DiagD=F ESCF=     -1.895458 Diff= 0.211D-04 RMSDP= 0.713D-05.
 It= 12 PL= 0.549D-04 DiagD=F ESCF=     -1.895459 Diff=-0.122D-05 RMSDP= 0.172D-04.
 It= 13 PL= 0.151D-04 DiagD=F ESCF=     -1.895464 Diff=-0.420D-05 RMSDP= 0.660D-06.
 It= 14 PL= 0.594D-05 DiagD=F ESCF=     -1.895461 Diff= 0.293D-05 RMSDP= 0.305D-06.
 It= 15 PL= 0.108D-05 DiagD=F ESCF=     -1.895461 Diff=-0.216D-08 RMSDP= 0.173D-06.
 It= 16 PL= 0.481D-06 DiagD=F ESCF=     -1.895461 Diff=-0.710D-09 RMSDP= 0.646D-07.
 SE2nd ... symmetry will not be used.
 SE2nd: IAtom=  1 IXYZ=1 IS=1.
 SE2nd: IAtom=  1 IXYZ=1 IS=2.
 SE2nd: IAtom=  1 IXYZ=2 IS=1.
 SE2nd: IAtom=  1 IXYZ=2 IS=2.
 SE2nd: IAtom=  1 IXYZ=3 IS=1.
 SE2nd: IAtom=  1 IXYZ=3 IS=2.
 SE2nd: IAtom=  2 IXYZ=1 IS=1.
 SE2nd: IAtom=  2 IXYZ=1 IS=2.
 SE2nd: IAtom=  2 IXYZ=2 IS=1.
 SE2nd: IAtom=  2 IXYZ=2 IS=2.
 SE2nd: IAtom=  2 IXYZ=3 IS=1.
 SE2nd: IAtom=  2 IXYZ=3 IS=2.
 SE2nd: IAtom=  3 IXYZ=1 IS=1.
 SE2nd: IAtom=  3 IXYZ=1 IS=2.
 SE2nd: IAtom=  3 IXYZ=2 IS=1.
 SE2nd: IAtom=  3 IXYZ=2 IS=2.
 SE2nd: IAtom=  3 IXYZ=3 IS=1.
 SE2nd: IAtom=  3 IXYZ=3 IS=2.
 SE2nd: IAtom=  4 IXYZ=1 IS=1.
 SE2nd: IAtom=  4 IXYZ=1 IS=2.
 SE2nd: IAtom=  4 IXYZ=2 IS=1.
 SE2nd: IAtom=  4 IXYZ=2 IS=2.
 SE2nd: IAtom=  4 IXYZ=3 IS=1.
 SE2nd: IAtom=  4 IXYZ=3 IS=2.
 SE2nd: IAtom=  5 IXYZ=1 IS=1.
 SE2nd: IAtom=  5 IXYZ=1 IS=2.
 SE2nd: IAtom=  5 IXYZ=2 IS=1.
 SE2nd: IAtom=  5 IXYZ=2 IS=2.
 SE2nd: IAtom=  5 IXYZ=3 IS=1.
 SE2nd: IAtom=  5 IXYZ=3 IS=2.
 SE2nd: IAtom=  6 IXYZ=1 IS=1.
 SE2nd: IAtom=  6 IXYZ=1 IS=2.
 SE2nd: IAtom=  6 IXYZ=2 IS=1.
 SE2nd: IAtom=  6 IXYZ=2 IS=2.
 SE2nd: IAtom=  6 IXYZ=3 IS=1.
 SE2nd: IAtom=  6 IXYZ=3 IS=2.
 SE2nd: IAtom=  7 IXYZ=1 IS=1.
 SE2nd: IAtom=  7 IXYZ=1 IS=2.
 SE2nd: IAtom=  7 IXYZ=2 IS=1.
 SE2nd: IAtom=  7 IXYZ=2 IS=2.
 SE2nd: IAtom=  7 IXYZ=3 IS=1.
 SE2nd: IAtom=  7 IXYZ=3 IS=2.
 SE2nd: IAtom=  8 IXYZ=1 IS=1.
 SE2nd: IAtom=  8 IXYZ=1 IS=2.
 SE2nd: IAtom=  8 IXYZ=2 IS=1.
 SE2nd: IAtom=  8 IXYZ=2 IS=2.
 SE2nd: IAtom=  8 IXYZ=3 IS=1.
 SE2nd: IAtom=  8 IXYZ=3 IS=2.
 SE2nd: IAtom=  9 IXYZ=1 IS=1.
 SE2nd: IAtom=  9 IXYZ=1 IS=2.
 SE2nd: IAtom=  9 IXYZ=2 IS=1.
 SE2nd: IAtom=  9 IXYZ=2 IS=2.
 SE2nd: IAtom=  9 IXYZ=3 IS=1.
 SE2nd: IAtom=  9 IXYZ=3 IS=2.
 SE2nd: IAtom= 10 IXYZ=1 IS=1.
 SE2nd: IAtom= 10 IXYZ=1 IS=2.
 SE2nd: IAtom= 10 IXYZ=2 IS=1.
 SE2nd: IAtom= 10 IXYZ=2 IS=2.
 SE2nd: IAtom= 10 IXYZ=3 IS=1.
 SE2nd: IAtom= 10 IXYZ=3 IS=2.
 SE2nd: IAtom= 11 IXYZ=1 IS=1.
 SE2nd: IAtom= 11 IXYZ=1 IS=2.
 SE2nd: IAtom= 11 IXYZ=2 IS=1.
 SE2nd: IAtom= 11 IXYZ=2 IS=2.
 SE2nd: IAtom= 11 IXYZ=3 IS=1.
 SE2nd: IAtom= 11 IXYZ=3 IS=2.
 SE2nd: IAtom= 12 IXYZ=1 IS=1.
 SE2nd: IAtom= 12 IXYZ=1 IS=2.
 SE2nd: IAtom= 12 IXYZ=2 IS=1.
 SE2nd: IAtom= 12 IXYZ=2 IS=2.
 SE2nd: IAtom= 12 IXYZ=3 IS=1.
 SE2nd: IAtom= 12 IXYZ=3 IS=2.
 SE2nd: IAtom= 13 IXYZ=1 IS=1.
 SE2nd: IAtom= 13 IXYZ=1 IS=2.
 SE2nd: IAtom= 13 IXYZ=2 IS=1.
 SE2nd: IAtom= 13 IXYZ=2 IS=2.
 SE2nd: IAtom= 13 IXYZ=3 IS=1.
 SE2nd: IAtom= 13 IXYZ=3 IS=2.
 SE2nd: IAtom= 14 IXYZ=1 IS=1.
 SE2nd: IAtom= 14 IXYZ=1 IS=2.
 SE2nd: IAtom= 14 IXYZ=2 IS=1.
 SE2nd: IAtom= 14 IXYZ=2 IS=2.
 SE2nd: IAtom= 14 IXYZ=3 IS=1.
 SE2nd: IAtom= 14 IXYZ=3 IS=2.
 SE2nd: IAtom= 15 IXYZ=1 IS=1.
 SE2nd: IAtom= 15 IXYZ=1 IS=2.
 SE2nd: IAtom= 15 IXYZ=2 IS=1.
 SE2nd: IAtom= 15 IXYZ=2 IS=2.
 SE2nd: IAtom= 15 IXYZ=3 IS=1.
 SE2nd: IAtom= 15 IXYZ=3 IS=2.
 SE2nd: IAtom= 16 IXYZ=1 IS=1.
 SE2nd: IAtom= 16 IXYZ=1 IS=2.
 SE2nd: IAtom= 16 IXYZ=2 IS=1.
 SE2nd: IAtom= 16 IXYZ=2 IS=2.
 SE2nd: IAtom= 16 IXYZ=3 IS=1.
 SE2nd: IAtom= 16 IXYZ=3 IS=2.
 SE2nd: IAtom= 17 IXYZ=1 IS=1.
 SE2nd: IAtom= 17 IXYZ=1 IS=2.
 SE2nd: IAtom= 17 IXYZ=2 IS=1.
 SE2nd: IAtom= 17 IXYZ=2 IS=2.
 SE2nd: IAtom= 17 IXYZ=3 IS=1.
 SE2nd: IAtom= 17 IXYZ=3 IS=2.
 SE2nd: IAtom= 18 IXYZ=1 IS=1.
 SE2nd: IAtom= 18 IXYZ=1 IS=2.
 SE2nd: IAtom= 18 IXYZ=2 IS=1.
 SE2nd: IAtom= 18 IXYZ=2 IS=2.
 SE2nd: IAtom= 18 IXYZ=3 IS=1.
 SE2nd: IAtom= 18 IXYZ=3 IS=2.
 SE2nd: IAtom= 19 IXYZ=1 IS=1.
 SE2nd: IAtom= 19 IXYZ=1 IS=2.
 SE2nd: IAtom= 19 IXYZ=2 IS=1.
 SE2nd: IAtom= 19 IXYZ=2 IS=2.
 SE2nd: IAtom= 19 IXYZ=3 IS=1.
 SE2nd: IAtom= 19 IXYZ=3 IS=2.
 SE2nd: IAtom= 20 IXYZ=1 IS=1.
 SE2nd: IAtom= 20 IXYZ=1 IS=2.
 SE2nd: IAtom= 20 IXYZ=2 IS=1.
 SE2nd: IAtom= 20 IXYZ=2 IS=2.
 SE2nd: IAtom= 20 IXYZ=3 IS=1.
 SE2nd: IAtom= 20 IXYZ=3 IS=2.
 SE2nd: IAtom= 21 IXYZ=1 IS=1.
 SE2nd: IAtom= 21 IXYZ=1 IS=2.
 SE2nd: IAtom= 21 IXYZ=2 IS=1.
 SE2nd: IAtom= 21 IXYZ=2 IS=2.
 SE2nd: IAtom= 21 IXYZ=3 IS=1.
 SE2nd: IAtom= 21 IXYZ=3 IS=2.
 SE2nd: IAtom= 22 IXYZ=1 IS=1.
 SE2nd: IAtom= 22 IXYZ=1 IS=2.
 SE2nd: IAtom= 22 IXYZ=2 IS=1.
 SE2nd: IAtom= 22 IXYZ=2 IS=2.
 SE2nd: IAtom= 22 IXYZ=3 IS=1.
 SE2nd: IAtom= 22 IXYZ=3 IS=2.
 SE2nd: IAtom= 23 IXYZ=1 IS=1.
 SE2nd: IAtom= 23 IXYZ=1 IS=2.
 SE2nd: IAtom= 23 IXYZ=2 IS=1.
 SE2nd: IAtom= 23 IXYZ=2 IS=2.
 SE2nd: IAtom= 23 IXYZ=3 IS=1.
 SE2nd: IAtom= 23 IXYZ=3 IS=2.
 SE2nd: IAtom= 24 IXYZ=1 IS=1.
 SE2nd: IAtom= 24 IXYZ=1 IS=2.
 SE2nd: IAtom= 24 IXYZ=2 IS=1.
 SE2nd: IAtom= 24 IXYZ=2 IS=2.
 SE2nd: IAtom= 24 IXYZ=3 IS=1.
 SE2nd: IAtom= 24 IXYZ=3 IS=2.
 SE2nd: IAtom= 25 IXYZ=1 IS=1.
 SE2nd: IAtom= 25 IXYZ=1 IS=2.
 SE2nd: IAtom= 25 IXYZ=2 IS=1.
 SE2nd: IAtom= 25 IXYZ=2 IS=2.
 SE2nd: IAtom= 25 IXYZ=3 IS=1.
 SE2nd: IAtom= 25 IXYZ=3 IS=2.
 SE2nd: IAtom= 26 IXYZ=1 IS=1.
 SE2nd: IAtom= 26 IXYZ=1 IS=2.
 SE2nd: IAtom= 26 IXYZ=2 IS=1.
 SE2nd: IAtom= 26 IXYZ=2 IS=2.
 SE2nd: IAtom= 26 IXYZ=3 IS=1.
 SE2nd: IAtom= 26 IXYZ=3 IS=2.
 SE2nd: IAtom= 27 IXYZ=1 IS=1.
 SE2nd: IAtom= 27 IXYZ=1 IS=2.
 SE2nd: IAtom= 27 IXYZ=2 IS=1.
 SE2nd: IAtom= 27 IXYZ=2 IS=2.
 SE2nd: IAtom= 27 IXYZ=3 IS=1.
 SE2nd: IAtom= 27 IXYZ=3 IS=2.
 SE2nd: IAtom= 28 IXYZ=1 IS=1.
 SE2nd: IAtom= 28 IXYZ=1 IS=2.
 SE2nd: IAtom= 28 IXYZ=2 IS=1.
 SE2nd: IAtom= 28 IXYZ=2 IS=2.
 SE2nd: IAtom= 28 IXYZ=3 IS=1.
 SE2nd: IAtom= 28 IXYZ=3 IS=2.
 SE2nd: IAtom= 29 IXYZ=1 IS=1.
 SE2nd: IAtom= 29 IXYZ=1 IS=2.
 SE2nd: IAtom= 29 IXYZ=2 IS=1.
 SE2nd: IAtom= 29 IXYZ=2 IS=2.
 SE2nd: IAtom= 29 IXYZ=3 IS=1.
 SE2nd: IAtom= 29 IXYZ=3 IS=2.
 SE2nd: IAtom= 30 IXYZ=1 IS=1.
 SE2nd: IAtom= 30 IXYZ=1 IS=2.
 SE2nd: IAtom= 30 IXYZ=2 IS=1.
 SE2nd: IAtom= 30 IXYZ=2 IS=2.
 SE2nd: IAtom= 30 IXYZ=3 IS=1.
 SE2nd: IAtom= 30 IXYZ=3 IS=2.
 SE2nd: IAtom= 31 IXYZ=1 IS=1.
 SE2nd: IAtom= 31 IXYZ=1 IS=2.
 SE2nd: IAtom= 31 IXYZ=2 IS=1.
 SE2nd: IAtom= 31 IXYZ=2 IS=2.
 SE2nd: IAtom= 31 IXYZ=3 IS=1.
 SE2nd: IAtom= 31 IXYZ=3 IS=2.
 SE2nd: IAtom= 32 IXYZ=1 IS=1.
 SE2nd: IAtom= 32 IXYZ=1 IS=2.
 SE2nd: IAtom= 32 IXYZ=2 IS=1.
 SE2nd: IAtom= 32 IXYZ=2 IS=2.
 SE2nd: IAtom= 32 IXYZ=3 IS=1.
 SE2nd: IAtom= 32 IXYZ=3 IS=2.
 SE2nd: IAtom= 33 IXYZ=1 IS=1.
 SE2nd: IAtom= 33 IXYZ=1 IS=2.
 SE2nd: IAtom= 33 IXYZ=2 IS=1.
 SE2nd: IAtom= 33 IXYZ=2 IS=2.
 SE2nd: IAtom= 33 IXYZ=3 IS=1.
 SE2nd: IAtom= 33 IXYZ=3 IS=2.
 SE2nd: IAtom= 34 IXYZ=1 IS=1.
 SE2nd: IAtom= 34 IXYZ=1 IS=2.
 SE2nd: IAtom= 34 IXYZ=2 IS=1.
 SE2nd: IAtom= 34 IXYZ=2 IS=2.
 SE2nd: IAtom= 34 IXYZ=3 IS=1.
 SE2nd: IAtom= 34 IXYZ=3 IS=2.
 Maximum difference in off-diagonal FC elements:
 I= 60 J= 58 Difference=    1.6364093899D-04
 Max difference between analytic and numerical forces:
 I= 60 Difference=    1.1728816519D-04
 Energy=   -0.069658260978 NIter=  17.
 Dipole moment=      -1.379673       0.065151      -0.455001

 **********************************************************************

            Population analysis using the SCF density.

 **********************************************************************

 Alpha  occ. eigenvalues --   -1.49120  -1.44068  -1.36267  -1.33732  -1.24052
 Alpha  occ. eigenvalues --   -1.22774  -1.12734  -1.04719  -1.01466  -0.97558
 Alpha  occ. eigenvalues --   -0.89456  -0.85017  -0.79153  -0.75735  -0.74572
 Alpha  occ. eigenvalues --   -0.70717  -0.66777  -0.65135  -0.64203  -0.63076
 Alpha  occ. eigenvalues --   -0.62221  -0.60728  -0.58158  -0.56890  -0.56199
 Alpha  occ. eigenvalues --   -0.55164  -0.54100  -0.53271  -0.51918  -0.51436
 Alpha  occ. eigenvalues --   -0.50114  -0.49653  -0.48504  -0.48185  -0.47739
 Alpha  occ. eigenvalues --   -0.46527  -0.46107  -0.45062  -0.44158  -0.43856
 Alpha  occ. eigenvalues --   -0.43498  -0.37702  -0.36812  -0.32512  -0.26136
 Alpha virt. eigenvalues --   -0.08274   0.00879   0.01650   0.03980   0.07710
 Alpha virt. eigenvalues --    0.08367   0.09290   0.09294   0.10671   0.11245
 Alpha virt. eigenvalues --    0.11697   0.12445   0.12918   0.13788   0.13879
 Alpha virt. eigenvalues --    0.14143   0.14200   0.14826   0.14882   0.15453
 Alpha virt. eigenvalues --    0.15701   0.15853   0.16082   0.16526   0.16558
 Alpha virt. eigenvalues --    0.16818   0.16966   0.17554   0.17785   0.18616
 Alpha virt. eigenvalues --    0.19794   0.20255   0.20384   0.21030   0.24531
 Alpha virt. eigenvalues --    0.24602   0.29697
          Condensed to atoms (all electrons):
              1          2          3          4          5          6
     1  C    4.137107   0.000000   0.000000   0.000000   0.000000   0.000000
     2  C    0.000000   3.989955   0.000000   0.000000   0.000000   0.000000
     3  C    0.000000   0.000000   4.233660   0.000000   0.000000   0.000000
     4  C    0.000000   0.000000   0.000000   4.032382   0.000000   0.000000
     5  N    0.000000   0.000000   0.000000   0.000000   4.854972   0.000000
     6  C    0.000000   0.000000   0.000000   0.000000   0.000000   3.660551
     7  O    0.000000   0.000000   0.000000   0.000000   0.000000   0.000000
     8  O    0.000000   0.000000   0.000000   0.000000   0.000000   0.000000
     9  C    0.000000   0.000000   0.000000   0.000000   0.000000   0.000000
    10  H    0.000000   0.000000   0.000000   0.000000   0.000000   0.000000
    11  H    0.000000   0.000000   0.000000   0.000000   0.000000   0.000000
    12  H    0.000000   0.000000   0.000000   0.000000   0.000000   0.000000
    13  H    0.000000   0.000000   0.000000   0.000000   0.000000   0.000000
    14  C    0.000000   0.000000   0.000000   0.000000   0.000000   0.000000
    15  C    0.000000   0.000000   0.000000   0.000000   0.000000   0.000000
    16  H    0.000000   0.000000   0.000000   0.000000   0.000000   0.000000
    17  H    0.000000   0.000000   0.000000   0.000000   0.000000   0.000000
    18  C    0.000000   0.000000   0.000000   0.000000   0.000000   0.000000
    19  H    0.000000   0.000000   0.000000   0.000000   0.000000   0.000000
    20  O    0.000000   0.000000   0.000000   0.000000   0.000000   0.000000
    21  N    0.000000   0.000000   0.000000   0.000000   0.000000   0.000000
    22  H    0.000000   0.000000   0.000000   0.000000   0.000000   0.000000
    23  H    0.000000   0.000000   0.000000   0.000000   0.000000   0.000000
    24  H    0.000000   0.000000   0.000000   0.000000   0.000000   0.000000
    25  H    0.000000   0.000000   0.000000   0.000000   0.000000   0.000000
    26  H    0.000000   0.000000   0.000000   0.000000   0.000000   0.000000
    27  C    0.000000   0.000000   0.000000   0.000000   0.000000   0.000000
    28  H    0.000000   0.000000   0.000000   0.000000   0.000000   0.000000
    29  H    0.000000   0.000000   0.000000   0.000000   0.000000   0.000000
    30  H    0.000000   0.000000   0.000000   0.000000   0.000000   0.000000
    31  C    0.000000   0.000000   0.000000   0.000000   0.000000   0.000000
    32  H    0.000000   0.000000   0.000000   0.000000   0.000000   0.000000
    33  H    0.000000   0.000000   0.000000   0.000000   0.000000   0.000000
    34  H    0.000000   0.000000   0.000000   0.000000   0.000000   0.000000
              7          8          9         10         11         12
     1  C    0.000000   0.000000   0.000000   0.000000   0.000000   0.000000
     2  C    0.000000   0.000000   0.000000   0.000000   0.000000   0.000000
     3  C    0.000000   0.000000   0.000000   0.000000   0.000000   0.000000
     4  C    0.000000   0.000000   0.000000   0.000000   0.000000   0.000000
     5  N    0.000000   0.000000   0.000000   0.000000   0.000000   0.000000
     6  C    0.000000   0.000000   0.000000   0.000000   0.000000   0.000000
     7  O    6.382510   0.000000   0.000000   0.000000   0.000000   0.000000
     8  O    0.000000   6.233904   0.000000   0.000000   0.000000   0.000000
     9  C    0.000000   0.000000   3.917861   0.000000   0.000000   0.000000
    10  H    0.000000   0.000000   0.000000   0.958973   0.000000   0.000000
    11  H    0.000000   0.000000   0.000000   0.000000   0.960053   0.000000
    12  H    0.000000   0.000000   0.000000   0.000000   0.000000   0.943705
    13  H    0.000000   0.000000   0.000000   0.000000   0.000000   0.000000
    14  C    0.000000   0.000000   0.000000   0.000000   0.000000   0.000000
    15  C    0.000000   0.000000   0.000000   0.000000   0.000000   0.000000
    16  H    0.000000   0.000000   0.000000   0.000000   0.000000   0.000000
    17  H    0.000000   0.000000   0.000000   0.000000   0.000000   0.000000
    18  C    0.000000   0.000000   0.000000   0.000000   0.000000   0.000000
    19  H    0.000000   0.000000   0.000000   0.000000   0.000000   0.000000
    20  O    0.000000   0.000000   0.000000   0.000000   0.000000   0.000000
    21  N    0.000000   0.000000   0.000000   0.000000   0.000000   0.000000
    22  H    0.000000   0.000000   0.000000   0.000000   0.000000   0.000000
    23  H    0.000000   0.000000   0.000000   0.000000   0.000000   0.000000
    24  H    0.000000   0.000000   0.000000   0.000000   0.000000   0.000000
    25  H    0.000000   0.000000   0.000000   0.000000   0.000000   0.000000
    26  H    0.000000   0.000000   0.000000   0.000000   0.000000   0.000000
    27  C    0.000000   0.000000   0.000000   0.000000   0.000000   0.000000
    28  H    0.000000   0.000000   0.000000   0.000000   0.000000   0.000000
    29  H    0.000000   0.000000   0.000000   0.000000   0.000000   0.000000
    30  H    0.000000   0.000000   0.000000   0.000000   0.000000   0.000000
    31  C    0.000000   0.000000   0.000000   0.000000   0.000000   0.000000
    32  H    0.000000   0.000000   0.000000   0.000000   0.000000   0.000000
    33  H    0.000000   0.000000   0.000000   0.000000   0.000000   0.000000
    34  H    0.000000   0.000000   0.000000   0.000000   0.000000   0.000000
             13         14         15         16         17         18
     1  C    0.000000   0.000000   0.000000   0.000000   0.000000   0.000000
     2  C    0.000000   0.000000   0.000000   0.000000   0.000000   0.000000
     3  C    0.000000   0.000000   0.000000   0.000000   0.000000   0.000000
     4  C    0.000000   0.000000   0.000000   0.000000   0.000000   0.000000
     5  N    0.000000   0.000000   0.000000   0.000000   0.000000   0.000000
     6  C    0.000000   0.000000   0.000000   0.000000   0.000000   0.000000
     7  O    0.000000   0.000000   0.000000   0.000000   0.000000   0.000000
     8  O    0.000000   0.000000   0.000000   0.000000   0.000000   0.000000
     9  C    0.000000   0.000000   0.000000   0.000000   0.000000   0.000000
    10  H    0.000000   0.000000   0.000000   0.000000   0.000000   0.000000
    11  H    0.000000   0.000000   0.000000   0.000000   0.000000   0.000000
    12  H    0.000000   0.000000   0.000000   0.000000   0.000000   0.000000
    13  H    0.864699   0.000000   0.000000   0.000000   0.000000   0.000000
    14  C    0.000000   3.953451   0.000000   0.000000   0.000000   0.000000
    15  C    0.000000   0.000000   4.452958   0.000000   0.000000   0.000000
    16  H    0.000000   0.000000   0.000000   0.929477   0.000000   0.000000
    17  H    0.000000   0.000000   0.000000   0.000000   0.958648   0.000000
    18  C    0.000000   0.000000   0.000000   0.000000   0.000000   3.701477
    19  H    0.000000   0.000000   0.000000   0.000000   0.000000   0.000000
    20  O    0.000000   0.000000   0.000000   0.000000   0.000000   0.000000
    21  N    0.000000   0.000000   0.000000   0.000000   0.000000   0.000000
    22  H    0.000000   0.000000   0.000000   0.000000   0.000000   0.000000
    23  H    0.000000   0.000000   0.000000   0.000000   0.000000   0.000000
    24  H    0.000000   0.000000   0.000000   0.000000   0.000000   0.000000
    25  H    0.000000   0.000000   0.000000   0.000000   0.000000   0.000000
    26  H    0.000000   0.000000   0.000000   0.000000   0.000000   0.000000
    27  C    0.000000   0.000000   0.000000   0.000000   0.000000   0.000000
    28  H    0.000000   0.000000   0.000000   0.000000   0.000000   0.000000
    29  H    0.000000   0.000000   0.000000   0.000000   0.000000   0.000000
    30  H    0.000000   0.000000   0.000000   0.000000   0.000000   0.000000
    31  C    0.000000   0.000000   0.000000   0.000000   0.000000   0.000000
    32  H    0.000000   0.000000   0.000000   0.000000   0.000000   0.000000
    33  H    0.000000   0.000000   0.000000   0.000000   0.000000   0.000000
    34  H    0.000000   0.000000   0.000000   0.000000   0.000000   0.000000
             19         20         21         22         23         24
     1  C    0.000000   0.000000   0.000000   0.000000   0.000000   0.000000
     2  C    0.000000   0.000000   0.000000   0.000000   0.000000   0.000000
     3  C    0.000000   0.000000   0.000000   0.000000   0.000000   0.000000
     4  C    0.000000   0.000000   0.000000   0.000000   0.000000   0.000000
     5  N    0.000000   0.000000   0.000000   0.000000   0.000000   0.000000
     6  C    0.000000   0.000000   0.000000   0.000000   0.000000   0.000000
     7  O    0.000000   0.000000   0.000000   0.000000   0.000000   0.000000
     8  O    0.000000   0.000000   0.000000   0.000000   0.000000   0.000000
     9  C    0.000000   0.000000   0.000000   0.000000   0.000000   0.000000
    10  H    0.000000   0.000000   0.000000   0.000000   0.000000   0.000000
    11  H    0.000000   0.000000   0.000000   0.000000   0.000000   0.000000
    12  H    0.000000   0.000000   0.000000   0.000000   0.000000   0.000000
    13  H    0.000000   0.000000   0.000000   0.000000   0.000000   0.000000
    14  C    0.000000   0.000000   0.000000   0.000000   0.000000   0.000000
    15  C    0.000000   0.000000   0.000000   0.000000   0.000000   0.000000
    16  H    0.000000   0.000000   0.000000   0.000000   0.000000   0.000000
    17  H    0.000000   0.000000   0.000000   0.000000   0.000000   0.000000
    18  C    0.000000   0.000000   0.000000   0.000000   0.000000   0.000000
    19  H    0.877101   0.000000   0.000000   0.000000   0.000000   0.000000
    20  O    0.000000   6.465340   0.000000   0.000000   0.000000   0.000000
    21  N    0.000000   0.000000   5.068891   0.000000   0.000000   0.000000
    22  H    0.000000   0.000000   0.000000   0.866762   0.000000   0.000000
    23  H    0.000000   0.000000   0.000000   0.000000   0.918668   0.000000
    24  H    0.000000   0.000000   0.000000   0.000000   0.000000   0.925128
    25  H    0.000000   0.000000   0.000000   0.000000   0.000000   0.000000
    26  H    0.000000   0.000000   0.000000   0.000000   0.000000   0.000000
    27  C    0.000000   0.000000   0.000000   0.000000   0.000000   0.000000
    28  H    0.000000   0.000000   0.000000   0.000000   0.000000   0.000000
    29  H    0.000000   0.000000   0.000000   0.000000   0.000000   0.000000
    30  H    0.000000   0.000000   0.000000   0.000000   0.000000   0.000000
    31  C    0.000000   0.000000   0.000000   0.000000   0.000000   0.000000
    32  H    0.000000   0.000000   0.000000   0.000000   0.000000   0.000000
    33  H    0.000000   0.000000   0.000000   0.000000   0.000000   0.000000
    34  H    0.000000   0.000000   0.000000   0.000000   0.000000   0.000000
             25         26         27         28         29         30
     1  C    0.000000   0.000000   0.000000   0.000000   0.000000   0.000000
     2  C    0.000000   0.000000   0.000000   0.000000   0.000000   0.000000
     3  C    0.000000   0.000000   0.000000   0.000000   0.000000   0.000000
     4  C    0.000000   0.000000   0.000000   0.000000   0.000000   0.000000
     5  N    0.000000   0.000000   0.000000   0.000000   0.000000   0.000000
     6  C    0.000000   0.000000   0.000000   0.000000   0.000000   0.000000
     7  O    0.000000   0.000000   0.000000   0.000000   0.000000   0.000000
     8  O    0.000000   0.000000   0.000000   0.000000   0.000000   0.000000
     9  C    0.000000   0.000000   0.000000   0.000000   0.000000   0.000000
    10  H    0.000000   0.000000   0.000000   0.000000   0.000000   0.000000
    11  H    0.000000   0.000000   0.000000   0.000000   0.000000   0.000000
    12  H    0.000000   0.000000   0.000000   0.000000   0.000000   0.000000
    13  H    0.000000   0.000000   0.000000   0.000000   0.000000   0.000000
    14  C    0.000000   0.000000   0.000000   0.000000   0.000000   0.000000
    15  C    0.000000   0.000000   0.000000   0.000000   0.000000   0.000000
    16  H    0.000000   0.000000   0.000000   0.000000   0.000000   0.000000
    17  H    0.000000   0.000000   0.000000   0.000000   0.000000   0.000000
    18  C    0.000000   0.000000   0.000000   0.000000   0.000000   0.000000
    19  H    0.000000   0.000000   0.000000   0.000000   0.000000   0.000000
    20  O    0.000000   0.000000   0.000000   0.000000   0.000000   0.000000
    21  N    0.000000   0.000000   0.000000   0.000000   0.000000   0.000000
    22  H    0.000000   0.000000   0.000000   0.000000   0.000000   0.000000
    23  H    0.000000   0.000000   0.000000   0.000000   0.000000   0.000000
    24  H    0.000000   0.000000   0.000000   0.000000   0.000000   0.000000
    25  H    0.908910   0.000000   0.000000   0.000000   0.000000   0.000000
    26  H    0.000000   0.886997   0.000000   0.000000   0.000000   0.000000
    27  C    0.000000   0.000000   4.088196   0.000000   0.000000   0.000000
    28  H    0.000000   0.000000   0.000000   0.955643   0.000000   0.000000
    29  H    0.000000   0.000000   0.000000   0.000000   0.942140   0.000000
    30  H    0.000000   0.000000   0.000000   0.000000   0.000000   0.977931
    31  C    0.000000   0.000000   0.000000   0.000000   0.000000   0.000000
    32  H    0.000000   0.000000   0.000000   0.000000   0.000000   0.000000
    33  H    0.000000   0.000000   0.000000   0.000000   0.000000   0.000000
    34  H    0.000000   0.000000   0.000000   0.000000   0.000000   0.000000
             31         32         33         34
     1  C    0.000000   0.000000   0.000000   0.000000
     2  C    0.000000   0.000000   0.000000   0.000000
     3  C    0.000000   0.000000   0.000000   0.000000
     4  C    0.000000   0.000000   0.000000   0.000000
     5  N    0.000000   0.000000   0.000000   0.000000
     6  C    0.000000   0.000000   0.000000   0.000000
     7  O    0.000000   0.000000   0.000000   0.000000
     8  O    0.000000   0.000000   0.000000   0.000000
     9  C    0.000000   0.000000   0.000000   0.000000
    10  H    0.000000   0.000000   0.000000   0.000000
    11  H    0.000000   0.000000   0.000000   0.000000
    12  H    0.000000   0.000000   0.000000   0.000000
    13  H    0.000000   0.000000   0.000000   0.000000
    14  C    0.000000   0.000000   0.000000   0.000000
    15  C    0.000000   0.000000   0.000000   0.000000
    16  H    0.000000   0.000000   0.000000   0.000000
    17  H    0.000000   0.000000   0.000000   0.000000
    18  C    0.000000   0.000000   0.000000   0.000000
    19  H    0.000000   0.000000   0.000000   0.000000
    20  O    0.000000   0.000000   0.000000   0.000000
    21  N    0.000000   0.000000   0.000000   0.000000
    22  H    0.000000   0.000000   0.000000   0.000000
    23  H    0.000000   0.000000   0.000000   0.000000
    24  H    0.000000   0.000000   0.000000   0.000000
    25  H    0.000000   0.000000   0.000000   0.000000
    26  H    0.000000   0.000000   0.000000   0.000000
    27  C    0.000000   0.000000   0.000000   0.000000
    28  H    0.000000   0.000000   0.000000   0.000000
    29  H    0.000000   0.000000   0.000000   0.000000
    30  H    0.000000   0.000000   0.000000   0.000000
    31  C    4.072023   0.000000   0.000000   0.000000
    32  H    0.000000   0.936558   0.000000   0.000000
    33  H    0.000000   0.000000   0.961490   0.000000
    34  H    0.000000   0.000000   0.000000   0.981880
 Mulliken atomic charges:
              1
     1  C   -0.137107
     2  C    0.010045
     3  C   -0.233660
     4  C   -0.032382
     5  N    0.145028
     6  C    0.339449
     7  O   -0.382510
     8  O   -0.233904
     9  C    0.082139
    10  H    0.041027
    11  H    0.039947
    12  H    0.056295
    13  H    0.135301
    14  C    0.046549
    15  C   -0.452958
    16  H    0.070523
    17  H    0.041352
    18  C    0.298523
    19  H    0.122899
    20  O   -0.465340
    21  N   -0.068891
    22  H    0.133238
    23  H    0.081332
    24  H    0.074872
    25  H    0.091090
    26  H    0.113003
    27  C   -0.088196
    28  H    0.044357
    29  H    0.057860
    30  H    0.022069
    31  C   -0.072023
    32  H    0.063442
    33  H    0.038510
    34  H    0.018120
 Sum of Mulliken charges=   0.00000
 Atomic charges with hydrogens summed into heavy atoms:
              1
     1  C    0.019097
     2  C    0.101135
     3  C   -0.120657
     4  C    0.100857
     5  N    0.280328
     6  C    0.339449
     7  O   -0.382510
     8  O   -0.233904
     9  C    0.219408
    10  H    0.000000
    11  H    0.000000
    12  H    0.000000
    13  H    0.000000
    14  C    0.158424
    15  C   -0.330059
    16  H    0.000000
    17  H    0.000000
    18  C    0.298523
    19  H    0.000000
    20  O   -0.465340
    21  N   -0.068891
    22  H    0.000000
    23  H    0.000000
    24  H    0.000000
    25  H    0.000000
    26  H    0.000000
    27  C    0.036090
    28  H    0.000000
    29  H    0.000000
    30  H    0.000000
    31  C    0.048050
    32  H    0.000000
    33  H    0.000000
    34  H    0.000000
 Sum of Mulliken charges=   0.00000
 APT atomic charges:
              1
     1  C   -0.588717
     2  C    0.541225
     3  C   -0.893230
     4  C    0.587394
     5  N   -0.823585
     6  C    1.650187
     7  O   -0.841370
     8  O   -0.606858
     9  C    0.302039
    10  H   -0.005367
    11  H    0.006859
    12  H    0.010182
    13  H    0.126125
    14  C    0.501272
    15  C   -0.723422
    16  H    0.012523
    17  H   -0.011313
    18  C    1.304111
    19  H    0.057129
    20  O   -0.652759
    21  N   -0.711446
    22  H    0.125770
    23  H    0.035016
    24  H    0.113422
    25  H    0.078677
    26  H    0.115235
    27  C    0.110118
    28  H    0.016412
    29  H    0.039249
    30  H   -0.026785
    31  C    0.138099
    32  H    0.043925
    33  H    0.008966
    34  H   -0.038131
 Sum of APT charges=   0.00095
 APT Atomic charges with hydrogens summed into heavy atoms:
              1
     1  C   -0.440279
     2  C    0.619902
     3  C   -0.777996
     4  C    0.713163
     5  N   -0.697460
     6  C    1.650187
     7  O   -0.841370
     8  O   -0.606858
     9  C    0.313714
    10  H    0.000000
    11  H    0.000000
    12  H    0.000000
    13  H    0.000000
    14  C    0.502482
    15  C   -0.666293
    16  H    0.000000
    17  H    0.000000
    18  C    1.304111
    19  H    0.000000
    20  O   -0.652759
    21  N   -0.711446
    22  H    0.000000
    23  H    0.000000
    24  H    0.000000
    25  H    0.000000
    26  H    0.000000
    27  C    0.138995
    28  H    0.000000
    29  H    0.000000
    30  H    0.000000
    31  C    0.152859
    32  H    0.000000
    33  H    0.000000
    34  H    0.000000
 Sum of APT charges=   0.00095
 -------------------------------------------------------------------
 Center     Atomic                   Forces (Hartrees/Bohr)
 Number     Number              X              Y              Z
 -------------------------------------------------------------------
    1          6          -0.000009731   -0.000001316    0.000005106
    2          6          -0.000001839   -0.000000668   -0.000003053
    3          6           0.000000112   -0.000003993    0.000000347
    4          6           0.001530339    0.000824851    0.000290660
    5          7          -0.000001574    0.000000906    0.000000607
    6          6          -0.000000437   -0.000001350   -0.000000161
    7          8           0.000000822    0.000000796    0.000001043
    8          8           0.000001410   -0.000000242   -0.000000777
    9          6          -0.000002144   -0.000000045   -0.000000807
   10          1           0.000000642   -0.000000026    0.000000059
   11          1           0.000000446    0.000000318    0.000000000
   12          1           0.000000487   -0.000000090    0.000000279
   13          1           0.000000347    0.000000894    0.000000529
   14          6           0.000012087    0.000005063   -0.000000097
   15          6          -0.001527530   -0.000826146   -0.000292916
   16          1          -0.000001340    0.000000132    0.000000439
   17          1          -0.000001099    0.000000619   -0.000000166
   18          6          -0.000000505   -0.000000274    0.000000451
   19          1          -0.000000220   -0.000001061   -0.000000703
   20          8           0.000001032    0.000000672   -0.000001359
   21          7          -0.000002687   -0.000000277   -0.000000640
   22          1          -0.000000607   -0.000000202   -0.000000594
   23          1          -0.000000217   -0.000000149   -0.000000955
   24          1           0.000000818    0.000000535    0.000000160
   25          1           0.000000749    0.000000078    0.000000792
   26          1          -0.000000060    0.000000174    0.000000553
   27          6          -0.000001333    0.000000102    0.000001130
   28          1           0.000000720    0.000000836   -0.000000886
   29          1           0.000000827    0.000000243    0.000000113
   30          1           0.000000436   -0.000000475    0.000000438
   31          6          -0.000000608    0.000000609   -0.000000220
   32          1           0.000000169   -0.000000191    0.000000175
   33          1           0.000000318   -0.000000298    0.000000367
   34          1           0.000000169   -0.000000024    0.000000088
 -------------------------------------------------------------------
 Cartesian Forces:  Max     0.001530339 RMS     0.000246720

 GradGradGradGradGradGradGradGradGradGradGradGradGradGradGradGradGradGrad
 Berny optimization.
 Internal  Forces:  Max     0.003290599 RMS     0.000654642
 Search for a saddle point.
 Step number   1 out of a maximum of  60
 All quantities printed in internal units (Hartrees-Bohrs-Radians)
 Swaping is turned off.
 Second derivative matrix not updated -- analytic derivatives used.
     Eigenvalues ---   -0.00021   0.00138   0.00180   0.00231   0.00294
     Eigenvalues ---    0.00329   0.00406   0.00461   0.00523   0.00703
     Eigenvalues ---    0.00830   0.01037   0.01173   0.01379   0.01511
     Eigenvalues ---    0.01795   0.02031   0.02243   0.02732   0.03734
     Eigenvalues ---    0.03907   0.04181   0.04362   0.04467   0.05618
     Eigenvalues ---    0.05662   0.05696   0.05736   0.05772   0.06495
     Eigenvalues ---    0.06874   0.07220   0.07278   0.09471   0.09892
     Eigenvalues ---    0.10217   0.10342   0.10714   0.11033   0.11163
     Eigenvalues ---    0.11246   0.11443   0.11874   0.12410   0.12591
     Eigenvalues ---    0.12967   0.13493   0.13552   0.13824   0.13873
     Eigenvalues ---    0.14311   0.14931   0.15367   0.16218   0.16657
     Eigenvalues ---    0.17190   0.17646   0.19140   0.21149   0.22058
     Eigenvalues ---    0.26808   0.30355   0.30555   0.30872   0.30947
     Eigenvalues ---    0.31707   0.31742   0.31877   0.31906   0.32096
     Eigenvalues ---    0.32370   0.32511   0.32706   0.33095   0.33154
     Eigenvalues ---    0.33406   0.33794   0.36065   0.36314   0.36817
     Eigenvalues ---    0.37103   0.37949   0.38510   0.41321   0.44213
     Eigenvalues ---    0.45854   0.46843   0.54577   0.58629   0.59196
     Eigenvalues ---    0.59239   0.65744   0.85271   0.90416   0.97385
     Eigenvalues ---    1.752721000.000001000.000001000.000001000.00000
     Eigenvalues --- 1000.000001000.000001000.000001000.000001000.00000
     Eigenvalues --- 1000.000001000.000001000.000001000.000001000.00000
     Eigenvalues --- 1000.000001000.000001000.000001000.000001000.00000
     Eigenvalues --- 1000.000001000.000001000.000001000.000001000.00000
     Eigenvalues --- 1000.000001000.000001000.000001000.000001000.00000
     Eigenvalues --- 1000.000001000.000001000.000001000.000001000.00000
     Eigenvalues --- 1000.000001000.000001000.000001000.000001000.00000
     Eigenvalues --- 1000.000001000.000001000.000001000.000001000.00000
     Eigenvalues --- 1000.000001000.000001000.000001000.000001000.00000
     Eigenvalues --- 1000.000001000.000001000.000001000.000001000.00000
 Eigenvectors required to have negative eigenvalues:
                          R1        R2        R3        R4        R5
         1             -0.11005   0.42817  -0.01574  -0.01568   0.07610
                          R6        R7        R8        R9        R10
         1              0.00061  -0.06693  -0.00125   0.06077  -0.00264
                          R11       R12       R13       R14       R15
         1             -0.03454  -0.00613   0.00541   0.00909  -0.00407
                          R16       R17       R18       R19       R20
         1             -0.00049   0.00013   0.00018  -0.10674  -0.01583
                          R21       R22       R23       R24       R25
         1             -0.01670   0.05929   0.00276  -0.02582  -0.02100
                          R26       R27       R28       R29       R30
         1              0.00139   0.00244   0.00016  -0.00036  -0.00051
                          R31       R32       R33       A1        A2
         1              0.00027  -0.00007  -0.00047  -0.03719   0.08635
                          A3        A4        A5        A6        A7
         1              0.07980  -0.10137  -0.12815   0.07264   0.01623
                          A8        A9        A10       A11       A12
         1              0.01620  -0.02982   0.00876  -0.02791   0.01990
                          A13       A14       A15       A16       A17
         1             -0.00360   0.02499  -0.01925  -0.00805  -0.02062
                          A18       A19       A20       A21       A22
         1              0.00464   0.01813  -0.00324  -0.01441   0.00427
                          A23       A24       A25       A26       A27
         1             -0.00344   0.00722   0.00292  -0.00232  -0.00246
                          A28       A29       A30       A31       A32
         1             -0.00164  -0.05879  -0.12601  -0.09946   0.09426
                          A33       A34       A35       A36       A37
         1              0.08850   0.07893  -0.00667   0.02990  -0.01414
                          A38       A39       A40       A41       A42
         1             -0.01713  -0.00024   0.01676   0.01551   0.00450
                          A43       A44       A45       A46       A47
         1              0.00123  -0.00351   0.00840  -0.00471  -0.00124
                          A48       A49       A50       A51       A52
         1              0.00107  -0.00002   0.00457  -0.00207  -0.00576
                          A53       A54       A55       D1        D2
         1             -0.00083   0.00213   0.00213   0.08159   0.04233
                          D3        D4        D5        D6        D7
         1              0.18378   0.14451  -0.05087  -0.09014  -0.06676
                          D8        D9        D10       D11       D12
         1             -0.06739  -0.06513  -0.05213  -0.05276  -0.05050
                          D13       D14       D15       D16       D17
         1             -0.06858  -0.06921  -0.06695   0.03696  -0.01855
                          D18       D19       D20       D21       D22
         1              0.07789   0.02238  -0.21023  -0.17650  -0.15564
                          D23       D24       D25       D26       D27
         1             -0.12192   0.12040   0.03647   0.08563   0.00170
                          D28       D29       D30       D31       D32
         1             -0.14787  -0.15939  -0.06026  -0.07177  -0.09411
                          D33       D34       D35       D36       D37
         1             -0.10636   0.07187   0.07216   0.06910  -0.09455
                          D38       D39       D40       D41       D42
         1             -0.23023  -0.23154  -0.36723   0.01337  -0.12231
                          D43       D44       D45       D46       D47
         1             -0.03233  -0.00302   0.10501   0.13432   0.04768
                          D48       D49       D50       D51       D52
         1              0.01715   0.07527   0.04474  -0.05344  -0.05480
                          D53       D54       D55       D56       D57
         1             -0.05754  -0.02339  -0.02475  -0.02749   0.02753
                          D58       D59       D60       D61       D62
         1              0.02707   0.02962  -0.00709  -0.00754  -0.00499
 RFO step:  Lambda0=7.351998136D-04 Lambda=-9.76141775D-04.
 Linear search not attempted -- option 19 set.
 Maximum step size (   0.300) exceeded in Quadratic search.
    -- Step size scaled by   0.309
 Iteration  1 RMS(Cart)=  0.05474016 RMS(Int)=  0.00113965
 Iteration  2 RMS(Cart)=  0.00206893 RMS(Int)=  0.00022709
 Iteration  3 RMS(Cart)=  0.00000199 RMS(Int)=  0.00022709
 Iteration  4 RMS(Cart)=  0.00000000 RMS(Int)=  0.00022709
 Variable       Old X    -DE/DX   Delta X   Delta X   Delta X     New X
                                 (Linear)    (Quad)   (Total)
    R1        2.69915  -0.00111   0.00000  -0.02926  -0.02926   2.66989
    R2        3.09683  -0.00152   0.00000   0.11651   0.11651   3.21334
    R3        2.09022   0.00000   0.00000  -0.00432  -0.00432   2.08590
    R4        2.08990   0.00000   0.00000  -0.00484  -0.00484   2.08506
    R5        2.62473  -0.00121   0.00000   0.01937   0.01937   2.64410
    R6        2.07884   0.00000   0.00000  -0.00021  -0.00021   2.07863
    R7        2.61033  -0.00059   0.00000  -0.01743  -0.01743   2.59290
    R8        2.07975   0.00000   0.00000  -0.00039  -0.00039   2.07936
    R9        2.60995   0.00000   0.00000   0.01685   0.01685   2.62680
   R10        2.08557   0.00000   0.00000  -0.00065  -0.00065   2.08492
   R11        2.71656   0.00000   0.00000  -0.00957  -0.00957   2.70698
   R12        1.89999   0.00000   0.00000  -0.00218  -0.00218   1.89781
   R13        2.30166   0.00000   0.00000   0.00154   0.00154   2.30321
   R14        2.56907   0.00000   0.00000   0.00258   0.00258   2.57165
   R15        2.67153   0.00000   0.00000  -0.00104  -0.00104   2.67048
   R16        2.07097   0.00000   0.00000  -0.00007  -0.00007   2.07090
   R17        2.06914   0.00000   0.00000   0.00005   0.00005   2.06919
   R18        2.06543   0.00000   0.00000   0.00002   0.00002   2.06545
   R19        2.69336   0.00013   0.00000  -0.02819  -0.02819   2.66517
   R20        2.09116   0.00000   0.00000  -0.00457  -0.00457   2.08659
   R21        2.08619   0.00000   0.00000  -0.00453  -0.00453   2.08166
   R22        2.71305   0.00000   0.00000   0.01722   0.01722   2.73028
   R23        2.07364   0.00000   0.00000   0.00074   0.00074   2.07438
   R24        2.34341   0.00000   0.00000  -0.00759  -0.00759   2.33582
   R25        2.74478   0.00000   0.00000  -0.00645  -0.00645   2.73834
   R26        2.79361   0.00000   0.00000   0.00036   0.00036   2.79396
   R27        2.79484   0.00000   0.00000   0.00061   0.00061   2.79545
   R28        2.07500   0.00000   0.00000   0.00006   0.00006   2.07506
   R29        2.08175   0.00000   0.00000  -0.00011  -0.00011   2.08163
   R30        2.07957   0.00000   0.00000  -0.00012  -0.00012   2.07945
   R31        2.07440   0.00000   0.00000   0.00008   0.00008   2.07448
   R32        2.07506   0.00000   0.00000  -0.00002  -0.00002   2.07504
   R33        2.08188   0.00000   0.00000  -0.00014  -0.00014   2.08174
    A1        1.92007  -0.00296   0.00000  -0.01901  -0.01887   1.90120
    A2        2.03291   0.00075   0.00000   0.02407   0.02328   2.05619
    A3        1.94233   0.00082   0.00000   0.02641   0.02567   1.96799
    A4        1.85799   0.00012   0.00000  -0.02892  -0.02877   1.82922
    A5        1.83151   0.00182   0.00000  -0.02916  -0.02899   1.80252
    A6        1.86650  -0.00038   0.00000   0.01956   0.01836   1.88485
    A7        2.24645  -0.00291   0.00000  -0.00200  -0.00200   2.24446
    A8        2.02082   0.00150   0.00000   0.00732   0.00732   2.02814
    A9        2.01326   0.00136   0.00000  -0.00551  -0.00551   2.00775
   A10        2.29556  -0.00191   0.00000  -0.00008  -0.00008   2.29548
   A11        2.00458   0.00096   0.00000  -0.00609  -0.00610   1.99848
   A12        1.98292   0.00095   0.00000   0.00627   0.00626   1.98919
   A13        2.20634   0.00000   0.00000   0.00028   0.00027   2.20661
   A14        2.05757   0.00000   0.00000   0.00573   0.00573   2.06329
   A15        2.01684   0.00000   0.00000  -0.00622  -0.00622   2.01063
   A16        2.10537   0.00000   0.00000  -0.00214  -0.00224   2.10313
   A17        2.07561   0.00000   0.00000  -0.00620  -0.00630   2.06931
   A18        2.05797   0.00000   0.00000   0.00101   0.00090   2.05887
   A19        2.20200   0.00000   0.00000   0.00506   0.00506   2.20706
   A20        1.91081   0.00000   0.00000  -0.00080  -0.00080   1.91001
   A21        2.16949   0.00000   0.00000  -0.00418  -0.00418   2.16531
   A22        2.05440   0.00000   0.00000   0.00102   0.00102   2.05542
   A23        1.93863   0.00000   0.00000  -0.00072  -0.00072   1.93791
   A24        1.95460   0.00000   0.00000   0.00178   0.00178   1.95638
   A25        1.77873   0.00000   0.00000   0.00088   0.00088   1.77961
   A26        1.92290   0.00000   0.00000  -0.00083  -0.00083   1.92208
   A27        1.93119   0.00000   0.00000  -0.00054  -0.00054   1.93065
   A28        1.93388   0.00000   0.00000  -0.00047  -0.00047   1.93341
   A29        1.98397  -0.00329   0.00000  -0.01924  -0.01911   1.96486
   A30        1.78804   0.00101   0.00000  -0.03193  -0.03176   1.75628
   A31        1.85646   0.00105   0.00000  -0.02813  -0.02800   1.82846
   A32        1.96889   0.00089   0.00000   0.02728   0.02649   1.99537
   A33        1.96137   0.00080   0.00000   0.02447   0.02370   1.98506
   A34        1.89347  -0.00039   0.00000   0.02150   0.02024   1.91371
   A35        2.12717   0.00000   0.00000  -0.00278  -0.00287   2.12430
   A36        2.07845   0.00000   0.00000   0.00797   0.00788   2.08633
   A37        2.07495   0.00000   0.00000  -0.00345  -0.00355   2.07140
   A38        2.16863   0.00000   0.00000  -0.00544  -0.00545   2.16317
   A39        2.07762   0.00000   0.00000   0.00005   0.00004   2.07767
   A40        2.03667   0.00000   0.00000   0.00520   0.00519   2.04186
   A41        2.05065   0.00000   0.00000   0.00539   0.00537   2.05603
   A42        2.05022   0.00000   0.00000   0.00189   0.00186   2.05208
   A43        1.96766   0.00000   0.00000   0.00047   0.00044   1.96810
   A44        1.90413   0.00000   0.00000  -0.00119  -0.00119   1.90294
   A45        1.92459   0.00000   0.00000   0.00276   0.00276   1.92735
   A46        1.96847   0.00000   0.00000  -0.00151  -0.00151   1.96696
   A47        1.88800   0.00000   0.00000  -0.00046  -0.00046   1.88754
   A48        1.88726   0.00000   0.00000   0.00034   0.00034   1.88760
   A49        1.88942   0.00000   0.00000   0.00006   0.00006   1.88947
   A50        1.91460   0.00000   0.00000   0.00158   0.00158   1.91618
   A51        1.90711   0.00000   0.00000  -0.00071  -0.00071   1.90640
   A52        1.97355   0.00000   0.00000  -0.00194  -0.00194   1.97162
   A53        1.88900   0.00000   0.00000  -0.00024  -0.00024   1.88875
   A54        1.88796   0.00000   0.00000   0.00076   0.00077   1.88872
   A55        1.88970   0.00000   0.00000   0.00059   0.00059   1.89029
    D1        1.61860  -0.00205   0.00000  -0.02491  -0.02492   1.59367
    D2       -1.44045  -0.00143   0.00000  -0.02182  -0.02182  -1.46227
    D3       -0.49693  -0.00039   0.00000   0.01140   0.01189  -0.48504
    D4        2.72721   0.00023   0.00000   0.01449   0.01499   2.74220
    D5       -2.64228  -0.00115   0.00000  -0.05659  -0.05709  -2.69937
    D6        0.58186  -0.00053   0.00000  -0.05350  -0.05398   0.52787
    D7       -1.13324   0.00066   0.00000  -0.01278  -0.01280  -1.14603
    D8        3.02028   0.00067   0.00000  -0.01474  -0.01481   3.00547
    D9        1.03438   0.00029   0.00000  -0.01474  -0.01476   1.01963
   D10        1.08397  -0.00023   0.00000  -0.01472  -0.01466   1.06931
   D11       -1.04570  -0.00021   0.00000  -0.01668  -0.01668  -1.06238
   D12       -3.03160  -0.00060   0.00000  -0.01668  -0.01662  -3.04822
   D13        3.05896   0.00018   0.00000  -0.01750  -0.01749   3.04147
   D14        0.92929   0.00020   0.00000  -0.01946  -0.01950   0.90978
   D15       -1.05661  -0.00019   0.00000  -0.01946  -0.01945  -1.07606
   D16        0.14144  -0.00062   0.00000   0.02717   0.02716   0.16859
   D17       -2.98184   0.00001   0.00000   0.01942   0.01943  -2.96241
   D18       -3.08240  -0.00123   0.00000   0.02460   0.02459  -3.05781
   D19        0.07751  -0.00060   0.00000   0.01685   0.01686   0.09437
   D20        0.16416   0.00031   0.00000  -0.02763  -0.02764   0.13653
   D21       -3.05602   0.00031   0.00000  -0.03128  -0.03129  -3.08731
   D22       -2.99557  -0.00031   0.00000  -0.02006  -0.02004  -3.01561
   D23        0.06744  -0.00031   0.00000  -0.02371  -0.02370   0.04373
   D24       -3.04788   0.00000   0.00000   0.01926   0.01923  -3.02864
   D25       -0.22792   0.00000   0.00000  -0.00642  -0.00638  -0.23430
   D26        0.17071   0.00000   0.00000   0.02237   0.02233   0.19304
   D27        2.99066   0.00000   0.00000  -0.00331  -0.00328   2.98738
   D28        0.00718   0.00000   0.00000  -0.04544  -0.04545  -0.03827
   D29       -3.09045   0.00000   0.00000  -0.04732  -0.04734  -3.13779
   D30       -2.81594   0.00000   0.00000  -0.01872  -0.01870  -2.83464
   D31        0.36961   0.00000   0.00000  -0.02060  -0.02058   0.34903
   D32       -2.97339   0.00000   0.00000  -0.03403  -0.03403  -3.00742
   D33        0.21117   0.00000   0.00000  -0.03615  -0.03614   0.17503
   D34        1.08671   0.00000   0.00000   0.02022   0.02022   1.10693
   D35       -1.07151   0.00000   0.00000   0.02053   0.02053  -1.05099
   D36       -3.13916   0.00000   0.00000   0.01976   0.01976  -3.11940
   D37       -1.39634  -0.00004   0.00000  -0.05544  -0.05538  -1.45173
   D38        1.82381  -0.00004   0.00000  -0.08149  -0.08150   1.74230
   D39        0.62969  -0.00037   0.00000  -0.09076  -0.09126   0.53843
   D40       -2.43334  -0.00037   0.00000  -0.11682  -0.11738  -2.55073
   D41        2.77708   0.00041   0.00000  -0.02255  -0.02201   2.75507
   D42       -0.28596   0.00041   0.00000  -0.04860  -0.04812  -0.33408
   D43        0.31405   0.00000   0.00000   0.00602   0.00609   0.32014
[...]
 Alpha  occ. eigenvalues --   -0.49836  -0.49717  -0.48893  -0.48460  -0.47652
 Alpha  occ. eigenvalues --   -0.46786  -0.45646  -0.45363  -0.44173  -0.43668
 Alpha  occ. eigenvalues --   -0.43480  -0.37516  -0.37044  -0.32943  -0.27169
 Alpha virt. eigenvalues --   -0.07442   0.01221   0.02164   0.04196   0.07087
 Alpha virt. eigenvalues --    0.08657   0.08870   0.09785   0.11087   0.11411
 Alpha virt. eigenvalues --    0.11716   0.12032   0.12975   0.13536   0.14070
 Alpha virt. eigenvalues --    0.14154   0.14337   0.14706   0.15036   0.15412
 Alpha virt. eigenvalues --    0.15568   0.15598   0.15965   0.16189   0.16361
 Alpha virt. eigenvalues --    0.16687   0.16736   0.17421   0.18063   0.19090
 Alpha virt. eigenvalues --    0.19559   0.19927   0.20352   0.20591   0.23896
 Alpha virt. eigenvalues --    0.25074   0.29000
          Condensed to atoms (all electrons):
              1          2          3          4          5          6
     1  C    4.139267   0.000000   0.000000   0.000000   0.000000   0.000000
     2  C    0.000000   4.017965   0.000000   0.000000   0.000000   0.000000
     3  C    0.000000   0.000000   4.219632   0.000000   0.000000   0.000000
     4  C    0.000000   0.000000   0.000000   4.038456   0.000000   0.000000
     5  N    0.000000   0.000000   0.000000   0.000000   4.869092   0.000000
     6  C    0.000000   0.000000   0.000000   0.000000   0.000000   3.658149
     7  O    0.000000   0.000000   0.000000   0.000000   0.000000   0.000000
     8  O    0.000000   0.000000   0.000000   0.000000   0.000000   0.000000
     9  C    0.000000   0.000000   0.000000   0.000000   0.000000   0.000000
    10  H    0.000000   0.000000   0.000000   0.000000   0.000000   0.000000
    11  H    0.000000   0.000000   0.000000   0.000000   0.000000   0.000000
    12  H    0.000000   0.000000   0.000000   0.000000   0.000000   0.000000
    13  H    0.000000   0.000000   0.000000   0.000000   0.000000   0.000000
    14  C    0.000000   0.000000   0.000000   0.000000   0.000000   0.000000
    15  C    0.000000   0.000000   0.000000   0.000000   0.000000   0.000000
    16  H    0.000000   0.000000   0.000000   0.000000   0.000000   0.000000
    17  H    0.000000   0.000000   0.000000   0.000000   0.000000   0.000000
    18  C    0.000000   0.000000   0.000000   0.000000   0.000000   0.000000
    19  H    0.000000   0.000000   0.000000   0.000000   0.000000   0.000000
    20  O    0.000000   0.000000   0.000000   0.000000   0.000000   0.000000
    21  N    0.000000   0.000000   0.000000   0.000000   0.000000   0.000000
    22  H    0.000000   0.000000   0.000000   0.000000   0.000000   0.000000
    23  H    0.000000   0.000000   0.000000   0.000000   0.000000   0.000000
    24  H    0.000000   0.000000   0.000000   0.000000   0.000000   0.000000
    25  H    0.000000   0.000000   0.000000   0.000000   0.000000   0.000000
    26  H    0.000000   0.000000   0.000000   0.000000   0.000000   0.000000
    27  C    0.000000   0.000000   0.000000   0.000000   0.000000   0.000000
    28  H    0.000000   0.000000   0.000000   0.000000   0.000000   0.000000
    29  H    0.000000   0.000000   0.000000   0.000000   0.000000   0.000000
    30  H    0.000000   0.000000   0.000000   0.000000   0.000000   0.000000
    31  C    0.000000   0.000000   0.000000   0.000000   0.000000   0.000000
    32  H    0.000000   0.000000   0.000000   0.000000   0.000000   0.000000
    33  H    0.000000   0.000000   0.000000   0.000000   0.000000   0.000000
    34  H    0.000000   0.000000   0.000000   0.000000   0.000000   0.000000
              7          8          9         10         11         12
     1  C    0.000000   0.000000   0.000000   0.000000   0.000000   0.000000
     2  C    0.000000   0.000000   0.000000   0.000000   0.000000   0.000000
     3  C    0.000000   0.000000   0.000000   0.000000   0.000000   0.000000
     4  C    0.000000   0.000000   0.000000   0.000000   0.000000   0.000000
     5  N    0.000000   0.000000   0.000000   0.000000   0.000000   0.000000
     6  C    0.000000   0.000000   0.000000   0.000000   0.000000   0.000000
     7  O    6.389498   0.000000   0.000000   0.000000   0.000000   0.000000
     8  O    0.000000   6.240437   0.000000   0.000000   0.000000   0.000000
     9  C    0.000000   0.000000   3.917078   0.000000   0.000000   0.000000
    10  H    0.000000   0.000000   0.000000   0.957779   0.000000   0.000000
    11  H    0.000000   0.000000   0.000000   0.000000   0.961482   0.000000
    12  H    0.000000   0.000000   0.000000   0.000000   0.000000   0.946300
    13  H    0.000000   0.000000   0.000000   0.000000   0.000000   0.000000
    14  C    0.000000   0.000000   0.000000   0.000000   0.000000   0.000000
    15  C    0.000000   0.000000   0.000000   0.000000   0.000000   0.000000
    16  H    0.000000   0.000000   0.000000   0.000000   0.000000   0.000000
    17  H    0.000000   0.000000   0.000000   0.000000   0.000000   0.000000
    18  C    0.000000   0.000000   0.000000   0.000000   0.000000   0.000000
    19  H    0.000000   0.000000   0.000000   0.000000   0.000000   0.000000
    20  O    0.000000   0.000000   0.000000   0.000000   0.000000   0.000000
    21  N    0.000000   0.000000   0.000000   0.000000   0.000000   0.000000
    22  H    0.000000   0.000000   0.000000   0.000000   0.000000   0.000000
    23  H    0.000000   0.000000   0.000000   0.000000   0.000000   0.000000
    24  H    0.000000   0.000000   0.000000   0.000000   0.000000   0.000000
    25  H    0.000000   0.000000   0.000000   0.000000   0.000000   0.000000
    26  H    0.000000   0.000000   0.000000   0.000000   0.000000   0.000000
    27  C    0.000000   0.000000   0.000000   0.000000   0.000000   0.000000
    28  H    0.000000   0.000000   0.000000   0.000000   0.000000   0.000000
    29  H    0.000000   0.000000   0.000000   0.000000   0.000000   0.000000
    30  H    0.000000   0.000000   0.000000   0.000000   0.000000   0.000000
    31  C    0.000000   0.000000   0.000000   0.000000   0.000000   0.000000
    32  H    0.000000   0.000000   0.000000   0.000000   0.000000   0.000000
    33  H    0.000000   0.000000   0.000000   0.000000   0.000000   0.000000
    34  H    0.000000   0.000000   0.000000   0.000000   0.000000   0.000000
             13         14         15         16         17         18
     1  C    0.000000   0.000000   0.000000   0.000000   0.000000   0.000000
     2  C    0.000000   0.000000   0.000000   0.000000   0.000000   0.000000
     3  C    0.000000   0.000000   0.000000   0.000000   0.000000   0.000000
     4  C    0.000000   0.000000   0.000000   0.000000   0.000000   0.000000
     5  N    0.000000   0.000000   0.000000   0.000000   0.000000   0.000000
     6  C    0.000000   0.000000   0.000000   0.000000   0.000000   0.000000
     7  O    0.000000   0.000000   0.000000   0.000000   0.000000   0.000000
     8  O    0.000000   0.000000   0.000000   0.000000   0.000000   0.000000
     9  C    0.000000   0.000000   0.000000   0.000000   0.000000   0.000000
    10  H    0.000000   0.000000   0.000000   0.000000   0.000000   0.000000
    11  H    0.000000   0.000000   0.000000   0.000000   0.000000   0.000000
    12  H    0.000000   0.000000   0.000000   0.000000   0.000000   0.000000
    13  H    0.878747   0.000000   0.000000   0.000000   0.000000   0.000000
    14  C    0.000000   3.960466   0.000000   0.000000   0.000000   0.000000
    15  C    0.000000   0.000000   4.427777   0.000000   0.000000   0.000000
    16  H    0.000000   0.000000   0.000000   0.924852   0.000000   0.000000
    17  H    0.000000   0.000000   0.000000   0.000000   0.953122   0.000000
    18  C    0.000000   0.000000   0.000000   0.000000   0.000000   3.703249
    19  H    0.000000   0.000000   0.000000   0.000000   0.000000   0.000000
    20  O    0.000000   0.000000   0.000000   0.000000   0.000000   0.000000
    21  N    0.000000   0.000000   0.000000   0.000000   0.000000   0.000000
    22  H    0.000000   0.000000   0.000000   0.000000   0.000000   0.000000
    23  H    0.000000   0.000000   0.000000   0.000000   0.000000   0.000000
    24  H    0.000000   0.000000   0.000000   0.000000   0.000000   0.000000
    25  H    0.000000   0.000000   0.000000   0.000000   0.000000   0.000000
    26  H    0.000000   0.000000   0.000000   0.000000   0.000000   0.000000
    27  C    0.000000   0.000000   0.000000   0.000000   0.000000   0.000000
    28  H    0.000000   0.000000   0.000000   0.000000   0.000000   0.000000
    29  H    0.000000   0.000000   0.000000   0.000000   0.000000   0.000000
    30  H    0.000000   0.000000   0.000000   0.000000   0.000000   0.000000
    31  C    0.000000   0.000000   0.000000   0.000000   0.000000   0.000000
    32  H    0.000000   0.000000   0.000000   0.000000   0.000000   0.000000
    33  H    0.000000   0.000000   0.000000   0.000000   0.000000   0.000000
    34  H    0.000000   0.000000   0.000000   0.000000   0.000000   0.000000
             19         20         21         22         23         24
     1  C    0.000000   0.000000   0.000000   0.000000   0.000000   0.000000
     2  C    0.000000   0.000000   0.000000   0.000000   0.000000   0.000000
     3  C    0.000000   0.000000   0.000000   0.000000   0.000000   0.000000
     4  C    0.000000   0.000000   0.000000   0.000000   0.000000   0.000000
     5  N    0.000000   0.000000   0.000000   0.000000   0.000000   0.000000
     6  C    0.000000   0.000000   0.000000   0.000000   0.000000   0.000000
     7  O    0.000000   0.000000   0.000000   0.000000   0.000000   0.000000
     8  O    0.000000   0.000000   0.000000   0.000000   0.000000   0.000000
     9  C    0.000000   0.000000   0.000000   0.000000   0.000000   0.000000
    10  H    0.000000   0.000000   0.000000   0.000000   0.000000   0.000000
    11  H    0.000000   0.000000   0.000000   0.000000   0.000000   0.000000
    12  H    0.000000   0.000000   0.000000   0.000000   0.000000   0.000000
    13  H    0.000000   0.000000   0.000000   0.000000   0.000000   0.000000
    14  C    0.000000   0.000000   0.000000   0.000000   0.000000   0.000000
    15  C    0.000000   0.000000   0.000000   0.000000   0.000000   0.000000
    16  H    0.000000   0.000000   0.000000   0.000000   0.000000   0.000000
    17  H    0.000000   0.000000   0.000000   0.000000   0.000000   0.000000
    18  C    0.000000   0.000000   0.000000   0.000000   0.000000   0.000000
    19  H    0.876049   0.000000   0.000000   0.000000   0.000000   0.000000
    20  O    0.000000   6.444663   0.000000   0.000000   0.000000   0.000000
    21  N    0.000000   0.000000   5.065499   0.000000   0.000000   0.000000
    22  H    0.000000   0.000000   0.000000   0.868756   0.000000   0.000000
    23  H    0.000000   0.000000   0.000000   0.000000   0.916220   0.000000
    24  H    0.000000   0.000000   0.000000   0.000000   0.000000   0.926595
    25  H    0.000000   0.000000   0.000000   0.000000   0.000000   0.000000
    26  H    0.000000   0.000000   0.000000   0.000000   0.000000   0.000000
    27  C    0.000000   0.000000   0.000000   0.000000   0.000000   0.000000
    28  H    0.000000   0.000000   0.000000   0.000000   0.000000   0.000000
    29  H    0.000000   0.000000   0.000000   0.000000   0.000000   0.000000
    30  H    0.000000   0.000000   0.000000   0.000000   0.000000   0.000000
    31  C    0.000000   0.000000   0.000000   0.000000   0.000000   0.000000
    32  H    0.000000   0.000000   0.000000   0.000000   0.000000   0.000000
    33  H    0.000000   0.000000   0.000000   0.000000   0.000000   0.000000
    34  H    0.000000   0.000000   0.000000   0.000000   0.000000   0.000000
             25         26         27         28         29         30
     1  C    0.000000   0.000000   0.000000   0.000000   0.000000   0.000000
     2  C    0.000000   0.000000   0.000000   0.000000   0.000000   0.000000
     3  C    0.000000   0.000000   0.000000   0.000000   0.000000   0.000000
     4  C    0.000000   0.000000   0.000000   0.000000   0.000000   0.000000
     5  N    0.000000   0.000000   0.000000   0.000000   0.000000   0.000000
     6  C    0.000000   0.000000   0.000000   0.000000   0.000000   0.000000
     7  O    0.000000   0.000000   0.000000   0.000000   0.000000   0.000000
     8  O    0.000000   0.000000   0.000000   0.000000   0.000000   0.000000
     9  C    0.000000   0.000000   0.000000   0.000000   0.000000   0.000000
    10  H    0.000000   0.000000   0.000000   0.000000   0.000000   0.000000
    11  H    0.000000   0.000000   0.000000   0.000000   0.000000   0.000000
    12  H    0.000000   0.000000   0.000000   0.000000   0.000000   0.000000
    13  H    0.000000   0.000000   0.000000   0.000000   0.000000   0.000000
    14  C    0.000000   0.000000   0.000000   0.000000   0.000000   0.000000
    15  C    0.000000   0.000000   0.000000   0.000000   0.000000   0.000000
    16  H    0.000000   0.000000   0.000000   0.000000   0.000000   0.000000
    17  H    0.000000   0.000000   0.000000   0.000000   0.000000   0.000000
    18  C    0.000000   0.000000   0.000000   0.000000   0.000000   0.000000
    19  H    0.000000   0.000000   0.000000   0.000000   0.000000   0.000000
    20  O    0.000000   0.000000   0.000000   0.000000   0.000000   0.000000
    21  N    0.000000   0.000000   0.000000   0.000000   0.000000   0.000000
    22  H    0.000000   0.000000   0.000000   0.000000   0.000000   0.000000
    23  H    0.000000   0.000000   0.000000   0.000000   0.000000   0.000000
    24  H    0.000000   0.000000   0.000000   0.000000   0.000000   0.000000
    25  H    0.906446   0.000000   0.000000   0.000000   0.000000   0.000000
    26  H    0.000000   0.887550   0.000000   0.000000   0.000000   0.000000
    27  C    0.000000   0.000000   4.091066   0.000000   0.000000   0.000000
    28  H    0.000000   0.000000   0.000000   0.953619   0.000000   0.000000
    29  H    0.000000   0.000000   0.000000   0.000000   0.943558   0.000000
    30  H    0.000000   0.000000   0.000000   0.000000   0.000000   0.970327
    31  C    0.000000   0.000000   0.000000   0.000000   0.000000   0.000000
    32  H    0.000000   0.000000   0.000000   0.000000   0.000000   0.000000
    33  H    0.000000   0.000000   0.000000   0.000000   0.000000   0.000000
    34  H    0.000000   0.000000   0.000000   0.000000   0.000000   0.000000
             31         32         33         34
     1  C    0.000000   0.000000   0.000000   0.000000
     2  C    0.000000   0.000000   0.000000   0.000000
     3  C    0.000000   0.000000   0.000000   0.000000
     4  C    0.000000   0.000000   0.000000   0.000000
     5  N    0.000000   0.000000   0.000000   0.000000
     6  C    0.000000   0.000000   0.000000   0.000000
     7  O    0.000000   0.000000   0.000000   0.000000
     8  O    0.000000   0.000000   0.000000   0.000000
     9  C    0.000000   0.000000   0.000000   0.000000
    10  H    0.000000   0.000000   0.000000   0.000000
    11  H    0.000000   0.000000   0.000000   0.000000
    12  H    0.000000   0.000000   0.000000   0.000000
    13  H    0.000000   0.000000   0.000000   0.000000
    14  C    0.000000   0.000000   0.000000   0.000000
    15  C    0.000000   0.000000   0.000000   0.000000
    16  H    0.000000   0.000000   0.000000   0.000000
    17  H    0.000000   0.000000   0.000000   0.000000
    18  C    0.000000   0.000000   0.000000   0.000000
    19  H    0.000000   0.000000   0.000000   0.000000
    20  O    0.000000   0.000000   0.000000   0.000000
    21  N    0.000000   0.000000   0.000000   0.000000
    22  H    0.000000   0.000000   0.000000   0.000000
    23  H    0.000000   0.000000   0.000000   0.000000
    24  H    0.000000   0.000000   0.000000   0.000000
    25  H    0.000000   0.000000   0.000000   0.000000
    26  H    0.000000   0.000000   0.000000   0.000000
    27  C    0.000000   0.000000   0.000000   0.000000
    28  H    0.000000   0.000000   0.000000   0.000000
    29  H    0.000000   0.000000   0.000000   0.000000
    30  H    0.000000   0.000000   0.000000   0.000000
    31  C    4.074376   0.000000   0.000000   0.000000
    32  H    0.000000   0.936902   0.000000   0.000000
    33  H    0.000000   0.000000   0.959388   0.000000
    34  H    0.000000   0.000000   0.000000   0.975638
 Mulliken atomic charges:
              1
     1  C   -0.139267
     2  C   -0.017965
     3  C   -0.219632
     4  C   -0.038456
     5  N    0.130908
     6  C    0.341851
     7  O   -0.389498
     8  O   -0.240437
     9  C    0.082922
    10  H    0.042221
    11  H    0.038518
    12  H    0.053700
    13  H    0.121253
    14  C    0.039534
    15  C   -0.427777
    16  H    0.075148
    17  H    0.046878
    18  C    0.296751
    19  H    0.123951
    20  O   -0.444663
    21  N   -0.065499
    22  H    0.131244
    23  H    0.083780
    24  H    0.073405
    25  H    0.093554
    26  H    0.112450
    27  C   -0.091066
    28  H    0.046381
    29  H    0.056442
    30  H    0.029673
    31  C   -0.074376
    32  H    0.063098
    33  H    0.040612
    34  H    0.024362
 Sum of Mulliken charges=   0.00000
 Atomic charges with hydrogens summed into heavy atoms:
              1
     1  C    0.017918
     2  C    0.075588
     3  C   -0.107182
     4  C    0.092788
     5  N    0.252161
     6  C    0.341851
     7  O   -0.389498
     8  O   -0.240437
     9  C    0.217361
    10  H    0.000000
    11  H    0.000000
    12  H    0.000000
    13  H    0.000000
    14  C    0.161560
    15  C   -0.303826
    16  H    0.000000
    17  H    0.000000
    18  C    0.296751
    19  H    0.000000
    20  O   -0.444663
    21  N   -0.065499
    22  H    0.000000
    23  H    0.000000
    24  H    0.000000
    25  H    0.000000
    26  H    0.000000
    27  C    0.041431
    28  H    0.000000
    29  H    0.000000
    30  H    0.000000
    31  C    0.053696
    32  H    0.000000
    33  H    0.000000
    34  H    0.000000
 Sum of Mulliken charges=   0.00000
 1\1\GINC-WOLF01\FTS\RPM3\ZDO\C11H18N2O3\XDANEK7\16-Dec-2012\0\\# PM3 O
 pt=(CalcFC,TS,NoEigenTest,MaxCycle=60) NoSymm\\produkt\\0,1\C,-2.10388
 91747,3.0040982189,0.656200057\C,-2.8297806162,2.9495160633,-0.5590535
 691\C,-2.9758043523,1.8427279121,-1.3934057207\C,-2.7046287738,0.51177
 43124,-1.1663958237\N,-2.5672035602,-0.0958097516,0.0765229103\C,-2.20
 9836736,-1.4813843639,0.1724512462\O,-2.0639983954,-2.2563544498,-0.75
 67644755\O,-2.1175334409,-1.8382351625,1.4826184243\C,-1.6143938159,-3
 .1261808939,1.7765928836\H,-0.5943583379,-3.251885574,1.3955057604\H,-
 2.2630482175,-3.9152753468,1.3823338587\H,-1.621164974,-3.1287253259,2
 .869430542\H,-2.3766919257,0.4889197735,0.8692449054\C,-0.45427689,3.1
 703504897,0.2503885793\C,0.0339171294,2.0619170347,-0.4797289115\H,-0.
 0005372564,3.2976688315,1.2483985854\H,-0.4044854691,4.1223849807,-0.3
 015637233\C,0.5791261354,0.899272281,0.183959078\H,0.110462359,2.12848
 12427,-1.5729477749\O,0.3384324488,0.5982111937,1.35851194\N,1.5003619
 627,0.0464667226,-0.5391918872\H,-2.7244617784,-0.1778598386,-2.027424
 1758\H,-2.1354919079,2.1205420759,1.3167032233\H,-2.3339509839,3.89236
 38106,1.2668865858\H,-3.2085878934,3.902356571,-0.9547356491\H,-3.3123
 95865,2.0693670789,-2.4159767298\C,1.3045247131,-0.0935703819,-1.99814
 13192\H,2.2537480651,-0.3949166826,-2.4604570252\H,0.9997064148,0.8699
 58417,-2.436642972\H,0.5429383271,-0.8456375386,-2.2542427384\C,1.9147
 931178,-1.2169713936,0.1093639291\H,2.3026846798,-1.0071806111,1.11466
 90697\H,2.7181410449,-1.6797204601,-0.478964542\H,1.0912629666,-1.9426
 092351,0.202295459\\Version=EM64L-G03RevE.01\HF=-0.0702157\RMSD=0.000e
 +00\RMSF=5.706e-07\Thermal=0.\Dipole=-1.1582456,0.1723381,-0.4209391\P
 G=C01 [X(C11H18N2O3)]\\@


 SACRED COWS MAKE GREAT HAMBURGERS -- ROBERT REISNER
 Job cpu time:  0 days  0 hours  0 minutes 31.4 seconds.
 File lengths (MBytes):  RWF=     13 Int=      0 D2E=      0 Chk=      7 Scr=      1
 Normal termination of Gaussian 03 at Sun Dec 16 19:06:20 2012.
