 Entering Gaussian System, Link 0=g03
 Input=reaktant1.com
 Output=reaktant1.log
 Initial command:
 /software/ncbr/softrepo/secret/gaussian/03.E1/x86_64/node/l1.exe /scratch/xdanek7/QM/02_QM_optimalizace/reaktant1/Gau-11868.inp -scrdir=/scratch/xdanek7/QM/02_QM_optimalizace/reaktant1/
 Entering Link 1 = /software/ncbr/softrepo/secret/gaussian/03.E1/x86_64/node/l1.exe PID=     11870.
  
 Copyright (c) 1988,1990,1992,1993,1995,1998,2003,2004,2007, Gaussian, Inc.
                  All Rights Reserved.
  
 This is the Gaussian(R) 03 program.  It is based on the
 the Gaussian(R) 98 system (copyright 1998, Gaussian, Inc.),
 the Gaussian(R) 94 system (copyright 1995, Gaussian, Inc.),
 the Gaussian 92(TM) system (copyright 1992, Gaussian, Inc.),
 the Gaussian 90(TM) system (copyright 1990, Gaussian, Inc.),
 the Gaussian 88(TM) system (copyright 1988, Gaussian, Inc.),
 the Gaussian 86(TM) system (copyright 1986, Carnegie Mellon
 University), and the Gaussian 82(TM) system (copyright 1983,
 Carnegie Mellon University). Gaussian is a federally registered
 trademark of Gaussian, Inc.
  
 This software contains proprietary and confidential information,
 including trade secrets, belonging to Gaussian, Inc.
  
 This software is provided under written license and may be
 used, copied, transmitted, or stored only in accord with that
 written license.
  
 The following legend is applicable only to US Government
 contracts under FAR:
  
                    RESTRICTED RIGHTS LEGEND
  
 Use, reproduction and disclosure by the US Government is
 subject to restrictions as set forth in subparagraphs (a)
 and (c) of the Commercial Computer Software - Restricted
 Rights clause in FAR 52.227-19.
  
 Gaussian, Inc.
 340 Quinnipiac St., Bldg. 40, Wallingford CT 06492
  
  
 ---------------------------------------------------------------
 Warning -- This program may not be used in any manner that
 competes with the business of Gaussian, Inc. or will provide
 assistance to any competitor of Gaussian, Inc.  The licensee
 of this program is prohibited from giving any competitor of
 Gaussian, Inc. access to this program.  By using this program,
 the user acknowledges that Gaussian, Inc. is engaged in the
 business of creating and licensing software in the field of
 computational chemistry and represents and warrants to the
 licensee that it is not a competitor of Gaussian, Inc. and that
 it will not use this program in any manner prohibited above.
 ---------------------------------------------------------------
  

 Cite this work as:
 Gaussian 03, Revision E.01,
 M. J. Frisch, G. W. Trucks, H. B. Schlegel, G. E. Scuseria, 
 M. A. Robb, J. R. Cheeseman, J. A. Montgomery, Jr., T. Vreven, 
 K. N. Kudin, J. C. Burant, J. M. Millam, S. S. Iyengar, J. Tomasi, 
 V. Barone, B. Mennucci, M. Cossi, G. Scalmani, N. Rega, 
 G. A. Petersson, H. Nakatsuji, M. Hada, M. Ehara, K. Toyota, 
 R. Fukuda, J. Hasegawa, M. Ishida, T. Nakajima, Y. Honda, O. Kitao, 
 H. Nakai, M. Klene, X. Li, J. E. Knox, H. P. Hratchian, J. B. Cross, 
 V. Bakken, C. Adamo, J. Jaramillo, R. Gomperts, R. E. Stratmann, 
 O. Yazyev, A. J. Austin, R. Cammi, C. Pomelli, J. W. Ochterski, 
 P. Y. Ayala, K. Morokuma, G. A. Voth, P. Salvador, J. J. Dannenberg, 
 V. G. Zakrzewski, S. Dapprich, A. D. Daniels, M. C. Strain, 
 O. Farkas, D. K. Malick, A. D. Rabuck, K. Raghavachari, 
 J. B. Foresman, J. V. Ortiz, Q. Cui, A. G. Baboul, S. Clifford, 
 J. Cioslowski, B. B. Stefanov, G. Liu, A. Liashenko, P. Piskorz, 
 I. Komaromi, R. L. Martin, D. J. Fox, T. Keith, M. A. Al-Laham, 
 C. Y. Peng, A. Nanayakkara, M. Challacombe, P. M. W. Gill, 
 B. Johnson, W. Chen, M. W. Wong, C. Gonzalez, and J. A. Pople, 
 Gaussian, Inc., Wallingford CT, 2004.
 
 ******************************************
 Gaussian 03:  EM64L-G03RevE.01 11-Sep-2007
                16-Dec-2012 
 ******************************************
 ----------------
 # PM3 Opt NoSymm
 ----------------
 1/14=-1,18=50,26=3,38=1/1,3;
 2/9=110,15=1,17=6,18=5,40=1/2;
 3/5=2,11=9,12=1,16=1,25=1,30=1/1;
 4/5=3,11=1,20=7,22=1,24=3,35=1/1,2;
 6/7=2,8=2,9=2,10=2/1;
 7/30=1/16;
 1/14=-1,18=50/3(3);
 2/9=110,15=1/2;
 6/7=2,8=2,9=2,10=2/1;
 99//99;
 2/9=110,15=1/2;
 3/5=2,11=9,12=1,16=1,25=1,30=1/1;
 4/5=5,11=1,16=3,20=7,22=1,24=3,35=1/1,2;
 7/30=1/16;
 1/14=-1,18=50/3(-4);
 2/9=110,15=1/2;
 6/7=2,8=2,9=2,10=2/1;
 99//99;
 ----------
 reaktant 1
 ----------
 Symbolic Z-matrix:
 Charge =  0 Multiplicity = 1
 C                    -2.41748   4.37497   0.0819 
 C                    -3.51819   3.65471  -0.16529 
 C                    -3.64973   2.2254    0.00531 
 C                    -2.66575   1.32954  -0.14815 
 N                    -2.88108  -0.01652  -0.0132 
 C                    -1.91219  -0.97511  -0.13929 
 O                    -0.72472  -0.77824  -0.35405 
 O                    -2.48316  -2.19806   0.0152 
 C                    -1.56877  -3.2886   -0.10605 
 H                    -0.91882  -3.32983   0.77306 
 H                    -0.97672  -3.21132  -1.02379 
 H                    -2.15064  -4.21338  -0.15293 
 H                    -2.42277   5.45135  -0.05933 
 H                    -1.49095   3.92738   0.42607 
 H                    -4.42105   4.17222  -0.48556 
 H                    -3.80802  -0.36566   0.18716 
 H                    -1.6473    1.62533  -0.3939 
 H                    -4.65932   1.88835   0.23195 
 

 GradGradGradGradGradGradGradGradGradGradGradGradGradGradGradGradGradGrad
 Berny optimization.
 Initialization pass.
                           ----------------------------
                           !    Initial Parameters    !
                           ! (Angstroms and Degrees)  !
 --------------------------                            --------------------------
 ! Name  Definition              Value          Derivative Info.                !
 --------------------------------------------------------------------------------
 ! R1    R(1,2)                  1.3384         estimate D2E/DX2                !
 ! R2    R(1,13)                 1.0856         estimate D2E/DX2                !
 ! R3    R(1,14)                 1.085          estimate D2E/DX2                !
 ! R4    R(2,3)                  1.4455         estimate D2E/DX2                !
 ! R5    R(2,15)                 1.0888         estimate D2E/DX2                !
 ! R6    R(3,4)                  1.3395         estimate D2E/DX2                !
 ! R7    R(3,18)                 1.0882         estimate D2E/DX2                !
 ! R8    R(4,5)                  1.3698         estimate D2E/DX2                !
 ! R9    R(4,17)                 1.0886         estimate D2E/DX2                !
 ! R10   R(5,6)                  1.3688         estimate D2E/DX2                !
 ! R11   R(5,16)                 1.0106         estimate D2E/DX2                !
 ! R12   R(6,7)                  1.2227         estimate D2E/DX2                !
 ! R13   R(6,8)                  1.3585         estimate D2E/DX2                !
 ! R14   R(8,9)                  1.4283         estimate D2E/DX2                !
 ! R15   R(9,10)                 1.0941         estimate D2E/DX2                !
 ! R16   R(9,11)                 1.0949         estimate D2E/DX2                !
 ! R17   R(9,12)                 1.0936         estimate D2E/DX2                !
 ! A1    A(2,1,13)             120.3658         estimate D2E/DX2                !
 ! A2    A(2,1,14)             122.6055         estimate D2E/DX2                !
 ! A3    A(13,1,14)            117.0288         estimate D2E/DX2                !
 ! A4    A(1,2,3)              125.8145         estimate D2E/DX2                !
 ! A5    A(1,2,15)             118.7164         estimate D2E/DX2                !
 ! A6    A(3,2,15)             115.4193         estimate D2E/DX2                !
 ! A7    A(2,3,4)              125.5174         estimate D2E/DX2                !
 ! A8    A(2,3,18)             114.5364         estimate D2E/DX2                !
 ! A9    A(4,3,18)             119.8817         estimate D2E/DX2                !
 ! A10   A(3,4,5)              122.034          estimate D2E/DX2                !
 ! A11   A(3,4,17)             122.0975         estimate D2E/DX2                !
 ! A12   A(5,4,17)             115.8674         estimate D2E/DX2                !
 ! A13   A(4,5,6)              124.5988         estimate D2E/DX2                !
 ! A14   A(4,5,16)             120.2123         estimate D2E/DX2                !
 ! A15   A(6,5,16)             115.1875         estimate D2E/DX2                !
 ! A16   A(5,6,7)              126.2196         estimate D2E/DX2                !
 ! A17   A(5,6,8)              108.8124         estimate D2E/DX2                !
 ! A18   A(7,6,8)              124.9679         estimate D2E/DX2                !
 ! A19   A(6,8,9)              114.1179         estimate D2E/DX2                !
 ! A20   A(8,9,10)             109.9304         estimate D2E/DX2                !
 ! A21   A(8,9,11)             111.3119         estimate D2E/DX2                !
 ! A22   A(8,9,12)             107.9786         estimate D2E/DX2                !
 ! A23   A(10,9,11)            110.7903         estimate D2E/DX2                !
 ! A24   A(10,9,12)            108.5819         estimate D2E/DX2                !
 ! A25   A(11,9,12)            108.1477         estimate D2E/DX2                !
 ! D1    D(13,1,2,3)          -178.7978         estimate D2E/DX2                !
 ! D2    D(13,1,2,15)           -1.4918         estimate D2E/DX2                !
 ! D3    D(14,1,2,3)             1.2365         estimate D2E/DX2                !
 ! D4    D(1,2,3,4)            -31.4635         estimate D2E/DX2                !
 ! D5    D(1,2,3,18)           151.4781         estimate D2E/DX2                !
 ! D6    D(15,2,3,4)           151.1523         estimate D2E/DX2                !
 ! D7    D(2,3,4,5)           -177.7068         estimate D2E/DX2                !
 ! D8    D(2,3,4,17)             1.8981         estimate D2E/DX2                !
 ! D9    D(18,3,4,5)            -0.7932         estimate D2E/DX2                !
 ! D10   D(3,4,5,6)           -179.0083         estimate D2E/DX2                !
 ! D11   D(3,4,5,16)             1.4484         estimate D2E/DX2                !
 ! D12   D(17,4,5,6)             1.3637         estimate D2E/DX2                !
 ! D13   D(4,5,6,7)              1.9248         estimate D2E/DX2                !
 ! D14   D(4,5,6,8)           -178.1493         estimate D2E/DX2                !
 ! D15   D(16,5,6,7)          -178.5113         estimate D2E/DX2                !
 ! D16   D(5,6,8,9)            179.542          estimate D2E/DX2                !
 ! D17   D(7,6,8,9)             -0.531          estimate D2E/DX2                !
 ! D18   D(6,8,9,10)            72.1038         estimate D2E/DX2                !
 ! D19   D(6,8,9,11)           -51.0394         estimate D2E/DX2                !
 --------------------------------------------------------------------------------
 Trust Radius=3.00D-01 FncErr=1.00D-07 GrdErr=1.00D-06
 Number of steps in this run=  71 maximum allowed number of steps= 108.
 GradGradGradGradGradGradGradGradGradGradGradGradGradGradGradGradGradGrad

                          Input orientation:                          
 ---------------------------------------------------------------------
 Center     Atomic     Atomic              Coordinates (Angstroms)
 Number     Number      Type              X           Y           Z
 ---------------------------------------------------------------------
    1          6             0       -2.417480    4.374970    0.081900
    2          6             0       -3.518190    3.654710   -0.165290
    3          6             0       -3.649730    2.225400    0.005310
    4          6             0       -2.665750    1.329540   -0.148150
    5          7             0       -2.881080   -0.016520   -0.013200
    6          6             0       -1.912190   -0.975110   -0.139290
    7          8             0       -0.724720   -0.778240   -0.354050
    8          8             0       -2.483160   -2.198060    0.015200
    9          6             0       -1.568770   -3.288600   -0.106050
   10          1             0       -0.918820   -3.329830    0.773060
   11          1             0       -0.976720   -3.211320   -1.023790
   12          1             0       -2.150640   -4.213380   -0.152930
   13          1             0       -2.422770    5.451350   -0.059330
   14          1             0       -1.490950    3.927380    0.426070
   15          1             0       -4.421050    4.172220   -0.485560
   16          1             0       -3.808020   -0.365660    0.187160
   17          1             0       -1.647300    1.625330   -0.393900
   18          1             0       -4.659320    1.888350    0.231950
 ---------------------------------------------------------------------
                    Distance matrix (angstroms):
                    1          2          3          4          5
     1  C    0.000000
     2  C    1.338447   0.000000
     3  C    2.478902   1.445453   0.000000
     4  C    3.064181   2.476563   1.339527   0.000000
     5  N    4.416917   3.729205   2.370099   1.369838   0.000000
     6  C    5.378438   4.900525   3.644615   2.424736   1.368774
     7  O    5.441605   5.243105   4.207930   2.872756   2.312203
     8  O    6.573697   5.946325   4.574711   3.536097   2.217716
     9  C    7.712713   7.212025   5.894658   4.746826   3.526654
    10  H    7.879570   7.511393   6.237619   5.060644   3.930228
    11  H    7.800650   7.371463   6.145076   4.923310   3.854170
    12  H    8.595703   7.986062   6.612881   5.566805   4.262241
    13  H    1.085619   2.106914   3.452008   4.129921   5.487238
    14  H    1.085010   2.129262   2.781026   2.908377   4.204731
    15  H    2.092226   1.088828   2.150813   3.357939   4.487781
    16  H    4.941483   4.046183   2.602252   2.071453   1.010574
    17  H    2.894837   2.769634   2.128187   1.088635   2.088736
    18  H    3.351364   2.140095   1.088228   2.105010   2.617397
                    6          7          8          9         10
     6  C    0.000000
     7  O    1.222687   0.000000
     8  O    1.358485   2.290054   0.000000
     9  C    2.339076   2.660044   1.428317   0.000000
    10  H    2.713646   2.796187   2.074226   1.094061   0.000000
    11  H    2.580325   2.536126   2.091783   1.094871   1.801684
    12  H    3.247066   3.724766   2.049476   1.093613   1.776372
    13  H    6.447207   6.463592   7.650011   8.781698   8.947841
    14  H    4.952927   4.830999   6.218867   7.235992   7.287992
    15  H    5.736662   6.179580   6.677323   7.996459   8.374395
    16  H    2.017962   3.157510   2.267711   3.693750   4.180557
    17  H    2.626268   2.574857   3.935014   4.922980   5.142576
    18  H    3.985467   4.789068   4.634803   6.038754   6.443100
                   11         12         13         14         15
    11  H    0.000000
    12  H    1.772177   0.000000
    13  H    8.835332   9.669013   0.000000
    14  H    7.302572   8.187943   1.851050   0.000000
    15  H    8.165155   8.693888   2.410595   3.078393   0.000000
    16  H    4.192904   4.203275   5.984754   4.884269   4.628252
    17  H    4.923375   5.865318   3.918127   2.448720   3.766794
    18  H    6.414442   6.608534   4.216867   3.772783   2.405755
                   16         17         18
    16  H    0.000000
    17  H    2.995060   0.000000
    18  H    2.409830   3.087577   0.000000
 Symmetry turned off by external request.
 Stoichiometry    C6H9NO2
 Framework group  C1[X(C6H9NO2)]
 Deg. of freedom    48
 Full point group                 C1
 Rotational constants (GHZ):      6.4663482      0.6076495      0.5598822
 Standard basis: VSTO-3G (5D, 7F)
 Integral buffers will be    131072 words long.
 Raffenetti 1 integral format.
 Two-electron integral symmetry is turned off.
    45 basis functions,   135 primitive gaussians,    45 cartesian basis functions
    25 alpha electrons       25 beta electrons
       nuclear repulsion energy       225.5047622173 Hartrees.
 NAtoms=   18 NActive=   18 NUniq=   18 SFac= 7.50D-01 NAtFMM=   80 NAOKFM=F Big=F
 Simple Huckel Guess.
 RHF-PM3 calculation of energy and first derivatives.
 MO and density RWFs will be updated without deorthogonalization.
 Closed-shell calculation:      25 occupied levels.
 NNHCO=    0.
 References:
  H: (PM3): J. J. P. STEWART, J. COMP. CHEM.     10, 209 (1989).
  C: (PM3): J. J. P. STEWART, J. COMP. CHEM.     10, 209 (1989).
  N: (PM3): J. J. P. STEWART, J. COMP. CHEM.     10, 209 (1989).
  O: (PM3): J. J. P. STEWART, J. COMP. CHEM.     10, 209 (1989).
 Ext34=T Pulay=F Camp-King=F BShift= 0.00D+00
 It=  1 PL= 0.103D+01 DiagD=T ESCF=     11.433098 Diff= 0.710D+01 RMSDP= 0.222D+00.
 It=  2 PL= 0.106D+00 DiagD=T ESCF=     -1.012421 Diff=-0.124D+02 RMSDP= 0.810D-02.
 It=  3 PL= 0.516D-01 DiagD=T ESCF=     -1.994388 Diff=-0.982D+00 RMSDP= 0.504D-02.
 It=  4 PL= 0.841D-02 DiagD=F ESCF=     -2.252573 Diff=-0.258D+00 RMSDP= 0.624D-03.
 It=  5 PL= 0.413D-02 DiagD=F ESCF=     -2.163331 Diff= 0.892D-01 RMSDP= 0.300D-03.
 It=  6 PL= 0.228D-02 DiagD=F ESCF=     -2.164440 Diff=-0.111D-02 RMSDP= 0.376D-03.
 It=  7 PL= 0.264D-03 DiagD=F ESCF=     -2.165543 Diff=-0.110D-02 RMSDP= 0.219D-04.
 It=  8 PL= 0.105D-03 DiagD=F ESCF=     -2.164914 Diff= 0.629D-03 RMSDP= 0.965D-05.
 It=  9 PL= 0.469D-04 DiagD=F ESCF=     -2.164915 Diff=-0.122D-05 RMSDP= 0.967D-05.
 It= 10 PL= 0.734D-05 DiagD=F ESCF=     -2.164916 Diff=-0.816D-06 RMSDP= 0.776D-06.
 It= 11 PL= 0.414D-05 DiagD=F ESCF=     -2.164916 Diff= 0.404D-06 RMSDP= 0.394D-06.
 It= 12 PL= 0.250D-05 DiagD=F ESCF=     -2.164916 Diff=-0.215D-08 RMSDP= 0.547D-06.
 It= 13 PL= 0.439D-06 DiagD=F ESCF=     -2.164916 Diff=-0.265D-08 RMSDP= 0.357D-07.
 Energy=   -0.079560738079 NIter=  14.
 Dipole moment=      -0.768702      -0.424098       0.113996

 **********************************************************************

            Population analysis using the SCF density.

 **********************************************************************

 Alpha  occ. eigenvalues --   -1.47762  -1.36174  -1.30999  -1.18935  -1.04629
 Alpha  occ. eigenvalues --   -0.97112  -0.84293  -0.76337  -0.73272  -0.68363
 Alpha  occ. eigenvalues --   -0.65276  -0.63019  -0.61149  -0.59013  -0.56500
 Alpha  occ. eigenvalues --   -0.54905  -0.52947  -0.49015  -0.48754  -0.46277
 Alpha  occ. eigenvalues --   -0.45544  -0.43303  -0.42054  -0.39662  -0.31890
 Alpha virt. eigenvalues --    0.00185   0.03174   0.04871   0.07436   0.09826
 Alpha virt. eigenvalues --    0.11959   0.12230   0.13028   0.14212   0.14367
 Alpha virt. eigenvalues --    0.14602   0.14900   0.15746   0.16024   0.17554
 Alpha virt. eigenvalues --    0.19892   0.20609   0.21449   0.22272   0.26966
          Condensed to atoms (all electrons):
              1          2          3          4          5          6
     1  C    4.162953   0.000000   0.000000   0.000000   0.000000   0.000000
     2  C    0.000000   4.084796   0.000000   0.000000   0.000000   0.000000
     3  C    0.000000   0.000000   4.193189   0.000000   0.000000   0.000000
     4  C    0.000000   0.000000   0.000000   4.125605   0.000000   0.000000
     5  N    0.000000   0.000000   0.000000   0.000000   4.869768   0.000000
     6  C    0.000000   0.000000   0.000000   0.000000   0.000000   3.675319
     7  O    0.000000   0.000000   0.000000   0.000000   0.000000   0.000000
     8  O    0.000000   0.000000   0.000000   0.000000   0.000000   0.000000
     9  C    0.000000   0.000000   0.000000   0.000000   0.000000   0.000000
    10  H    0.000000   0.000000   0.000000   0.000000   0.000000   0.000000
    11  H    0.000000   0.000000   0.000000   0.000000   0.000000   0.000000
    12  H    0.000000   0.000000   0.000000   0.000000   0.000000   0.000000
    13  H    0.000000   0.000000   0.000000   0.000000   0.000000   0.000000
    14  H    0.000000   0.000000   0.000000   0.000000   0.000000   0.000000
    15  H    0.000000   0.000000   0.000000   0.000000   0.000000   0.000000
    16  H    0.000000   0.000000   0.000000   0.000000   0.000000   0.000000
    17  H    0.000000   0.000000   0.000000   0.000000   0.000000   0.000000
    18  H    0.000000   0.000000   0.000000   0.000000   0.000000   0.000000
              7          8          9         10         11         12
     1  C    0.000000   0.000000   0.000000   0.000000   0.000000   0.000000
     2  C    0.000000   0.000000   0.000000   0.000000   0.000000   0.000000
     3  C    0.000000   0.000000   0.000000   0.000000   0.000000   0.000000
     4  C    0.000000   0.000000   0.000000   0.000000   0.000000   0.000000
     5  N    0.000000   0.000000   0.000000   0.000000   0.000000   0.000000
     6  C    0.000000   0.000000   0.000000   0.000000   0.000000   0.000000
     7  O    6.417156   0.000000   0.000000   0.000000   0.000000   0.000000
     8  O    0.000000   6.263188   0.000000   0.000000   0.000000   0.000000
     9  C    0.000000   0.000000   3.921643   0.000000   0.000000   0.000000
    10  H    0.000000   0.000000   0.000000   0.963425   0.000000   0.000000
    11  H    0.000000   0.000000   0.000000   0.000000   0.954691   0.000000
    12  H    0.000000   0.000000   0.000000   0.000000   0.000000   0.956205
    13  H    0.000000   0.000000   0.000000   0.000000   0.000000   0.000000
    14  H    0.000000   0.000000   0.000000   0.000000   0.000000   0.000000
    15  H    0.000000   0.000000   0.000000   0.000000   0.000000   0.000000
    16  H    0.000000   0.000000   0.000000   0.000000   0.000000   0.000000
    17  H    0.000000   0.000000   0.000000   0.000000   0.000000   0.000000
    18  H    0.000000   0.000000   0.000000   0.000000   0.000000   0.000000
             13         14         15         16         17         18
     1  C    0.000000   0.000000   0.000000   0.000000   0.000000   0.000000
     2  C    0.000000   0.000000   0.000000   0.000000   0.000000   0.000000
     3  C    0.000000   0.000000   0.000000   0.000000   0.000000   0.000000
     4  C    0.000000   0.000000   0.000000   0.000000   0.000000   0.000000
     5  N    0.000000   0.000000   0.000000   0.000000   0.000000   0.000000
     6  C    0.000000   0.000000   0.000000   0.000000   0.000000   0.000000
     7  O    0.000000   0.000000   0.000000   0.000000   0.000000   0.000000
     8  O    0.000000   0.000000   0.000000   0.000000   0.000000   0.000000
     9  C    0.000000   0.000000   0.000000   0.000000   0.000000   0.000000
    10  H    0.000000   0.000000   0.000000   0.000000   0.000000   0.000000
    11  H    0.000000   0.000000   0.000000   0.000000   0.000000   0.000000
    12  H    0.000000   0.000000   0.000000   0.000000   0.000000   0.000000
    13  H    0.918278   0.000000   0.000000   0.000000   0.000000   0.000000
    14  H    0.000000   0.913977   0.000000   0.000000   0.000000   0.000000
    15  H    0.000000   0.000000   0.907624   0.000000   0.000000   0.000000
    16  H    0.000000   0.000000   0.000000   0.916390   0.000000   0.000000
    17  H    0.000000   0.000000   0.000000   0.000000   0.857268   0.000000
    18  H    0.000000   0.000000   0.000000   0.000000   0.000000   0.898526
 Mulliken atomic charges:
              1
     1  C   -0.162953
     2  C   -0.084796
     3  C   -0.193189
     4  C   -0.125605
     5  N    0.130232
     6  C    0.324681
     7  O   -0.417156
     8  O   -0.263188
     9  C    0.078357
    10  H    0.036575
    11  H    0.045309
    12  H    0.043795
    13  H    0.081722
    14  H    0.086023
    15  H    0.092376
    16  H    0.083610
    17  H    0.142732
    18  H    0.101474
 Sum of Mulliken charges=   0.00000
 Atomic charges with hydrogens summed into heavy atoms:
              1
     1  C    0.004792
     2  C    0.007580
     3  C   -0.091715
     4  C    0.017127
     5  N    0.213842
     6  C    0.324681
     7  O   -0.417156
     8  O   -0.263188
     9  C    0.204036
    10  H    0.000000
    11  H    0.000000
    12  H    0.000000
    13  H    0.000000
    14  H    0.000000
    15  H    0.000000
    16  H    0.000000
    17  H    0.000000
    18  H    0.000000
 Sum of Mulliken charges=   0.00000
 -------------------------------------------------------------------
 Center     Atomic                   Forces (Hartrees/Bohr)
 Number     Number              X              Y              Z
 -------------------------------------------------------------------
    1          6          -0.009535531   -0.008256763   -0.003250599
    2          6           0.012629161    0.007313263    0.005030033
    3          6          -0.007058014    0.003536778   -0.001795641
    4          6           0.011417286    0.043695799   -0.004377806
    5          7          -0.046307927   -0.031575549    0.011461694
    6          6           0.026657034   -0.006831897   -0.004114486
    7          8           0.005195148   -0.001949636   -0.000758772
    8          8           0.007770581   -0.022247248   -0.001498107
    9          6          -0.002196144   -0.001642938    0.000783046
   10          1           0.001638667    0.000860539   -0.000041702
   11          1           0.001915568   -0.000126827   -0.000296685
   12          1          -0.006553070    0.003697877    0.000988335
   13          1           0.003374031   -0.000353188    0.001126513
   14          1           0.001230856    0.001956064   -0.000036644
   15          1          -0.005363478    0.001027773   -0.002425923
   16          1           0.004702274    0.008903290   -0.001408968
   17          1           0.007950919    0.003000742   -0.001645777
   18          1          -0.007467361   -0.001008080    0.002261486
 -------------------------------------------------------------------
 Cartesian Forces:  Max     0.046307927 RMS     0.011812759

 GradGradGradGradGradGradGradGradGradGradGradGradGradGradGradGradGradGrad
 Berny optimization.
 Internal  Forces:  Max     0.051660793 RMS     0.010222764
 Search for a local minimum.
 Step number   1 out of a maximum of  71
 All quantities printed in internal units (Hartrees-Bohrs-Radians)
 Second derivative matrix not updated -- first step.
 RFO step:  Lambda= 2.05039900D-03.
 Linear search not attempted -- first point.
 Iteration  1 RMS(Cart)=  0.07419485 RMS(Int)=  0.00212365
 Iteration  2 RMS(Cart)=  0.00315852 RMS(Int)=  0.00030960
 Iteration  3 RMS(Cart)=  0.00000342 RMS(Int)=  0.00030959
 Iteration  4 RMS(Cart)=  0.00000000 RMS(Int)=  0.00030959
 Variable       Old X    -DE/DX   Delta X   Delta X   Delta X     New X
                                 (Linear)    (Quad)   (Total)
    R1        2.52930  -0.00803   0.00000  -0.01399  -0.01399   2.51531
    R2        2.05152  -0.00051   0.00000  -0.00133  -0.00133   2.05020
    R3        2.05037   0.00023   0.00000   0.00061   0.00061   2.05098
    R4        2.73151   0.00183   0.00000   0.00428   0.00428   2.73579
    R5        2.05759   0.00565   0.00000   0.01559   0.01559   2.07318
    R6        2.53134   0.01188   0.00000   0.01949   0.01949   2.55082
    R7        2.05645   0.00771   0.00000   0.02143   0.02143   2.07789
    R8        2.58862   0.05166   0.00000   0.09953   0.09953   2.68815
    R9        2.05722   0.00863   0.00000   0.02470   0.02470   2.08192
   R10        2.58661   0.04460   0.00000   0.08436   0.08436   2.67097
   R11        1.90971  -0.00767   0.00000  -0.01680  -0.01680   1.89291
   R12        2.31054   0.00486   0.00000   0.00499   0.00499   2.31553
   R13        2.56716   0.01643   0.00000   0.02928   0.02928   2.59644
   R14        2.69913  -0.00558   0.00000  -0.01585  -0.01585   2.68328
   R15        2.06748   0.00091   0.00000   0.00235   0.00235   2.06983
   R16        2.06901   0.00128   0.00000   0.00349   0.00349   2.07249
   R17        2.06663   0.00032   0.00000   0.00055   0.00055   2.06718
    A1        2.10078   0.00327   0.00000   0.01746   0.01723   2.11801
    A2        2.13987   0.00072   0.00000   0.00719   0.00696   2.14683
    A3        2.04254  -0.00399   0.00000  -0.02467  -0.02489   2.01764
    A4        2.19588  -0.00476   0.00000  -0.01523  -0.01621   2.17966
    A5        2.07199   0.00429   0.00000   0.02209   0.02111   2.09310
    A6        2.01445   0.00056   0.00000  -0.00366  -0.00464   2.00981
    A7        2.19069  -0.00843   0.00000  -0.03138  -0.03224   2.15845
    A8        1.99904   0.00281   0.00000   0.00990   0.00904   2.00808
    A9        2.09233   0.00571   0.00000   0.02488   0.02402   2.11635
   A10        2.12990   0.00077   0.00000  -0.00295  -0.00308   2.12682
   A11        2.13100  -0.00107   0.00000  -0.00062  -0.00075   2.13026
   A12        2.02227   0.00030   0.00000   0.00374   0.00361   2.02587
   A13        2.17466  -0.00296   0.00000  -0.01471  -0.01472   2.15994
   A14        2.09810  -0.00489   0.00000  -0.03193  -0.03194   2.06617
   A15        2.01040   0.00786   0.00000   0.04669   0.04668   2.05708
   A16        2.20295   0.00217   0.00000   0.00909   0.00908   2.21203
   A17        1.89913   0.00207   0.00000   0.00817   0.00816   1.90730
   A18        2.18110  -0.00424   0.00000  -0.01725  -0.01725   2.16385
   A19        1.99173   0.02125   0.00000   0.07429   0.07429   2.06602
   A20        1.91865   0.00126   0.00000   0.00684   0.00670   1.92535
   A21        1.94276   0.00359   0.00000   0.01826   0.01812   1.96088
   A22        1.88458  -0.01185   0.00000  -0.07258  -0.07269   1.81189
   A23        1.93366  -0.00083   0.00000   0.00029   0.00012   1.93377
   A24        1.89511   0.00326   0.00000   0.02076   0.02066   1.91577
   A25        1.88753   0.00434   0.00000   0.02492   0.02481   1.91234
    D1       -3.12061  -0.00109   0.00000  -0.04166  -0.04189   3.12069
    D2       -0.02604   0.00115   0.00000   0.04455   0.04479   0.01875
    D3        0.02158   0.00027   0.00000  -0.00039  -0.00040   0.02118
    D4       -0.54914   0.00217   0.00000   0.08214   0.08171  -0.46744
    D5        2.64379  -0.00015   0.00000   0.00404   0.00420   2.64799
    D6        2.63811  -0.00010   0.00000  -0.00220  -0.00192   2.63618
    D7       -3.10157  -0.00142   0.00000  -0.04043  -0.04048   3.14114
    D8        0.03313  -0.00024   0.00000  -0.00922  -0.00930   0.02383
    D9       -0.01384   0.00091   0.00000   0.04099   0.04112   0.02728
   D10       -3.12428   0.00028   0.00000  -0.00021  -0.00024  -3.12452
   D11        0.02528  -0.00007   0.00000  -0.00837  -0.00827   0.01700
   D12        0.02380  -0.00083   0.00000  -0.02958  -0.02965  -0.00585
   D13        0.03359  -0.00023   0.00000  -0.00423  -0.00433   0.02926
   D14       -3.10929  -0.00059   0.00000   0.00168   0.00168  -3.10761
   D15       -3.11561   0.00005   0.00000   0.00325   0.00334  -3.11227
   D16        3.13360   0.00006   0.00000  -0.00567  -0.00566   3.12793
   D17       -0.00927  -0.00028   0.00000   0.00017   0.00017  -0.00910
   D18        1.25845   0.00023   0.00000  -0.03171  -0.03167   1.22678
   D19       -0.89081  -0.00206   0.00000  -0.04944  -0.04949  -0.94029
         Item               Value     Threshold  Converged?
 Maximum Force            0.051661     0.000450     NO 
 RMS     Force            0.010223     0.000300     NO 
 Maximum Displacement     0.243232     0.001800     NO 
 RMS     Displacement     0.073865     0.001200     NO 
 Predicted change in Energy=-7.875781D-03
 GradGradGradGradGradGradGradGradGradGradGradGradGradGradGradGradGradGrad

                          Input orientation:                          
 ---------------------------------------------------------------------
 Center     Atomic     Atomic              Coordinates (Angstroms)
 Number     Number      Type              X           Y           Z
 ---------------------------------------------------------------------
    1          6             0       -2.420561    4.362188    0.091195
    2          6             0       -3.551153    3.699484   -0.141739
    3          6             0       -3.712440    2.266507   -0.013462
    4          6             0       -2.701132    1.383870   -0.155835
    5          7             0       -2.903263   -0.017727   -0.020960
    6          6             0       -1.870772   -0.975359   -0.142005
    7          8             0       -0.683287   -0.751257   -0.344689
    8          8             0       -2.401566   -2.234923   -0.002101
    9          6             0       -1.529330   -3.350352   -0.108064
   10          1             0       -0.865599   -3.398041    0.761926
   11          1             0       -0.950363   -3.340033   -1.039450
   12          1             0       -2.204508   -4.211024   -0.105869
   13          1             0       -2.358725    5.437166   -0.041639
   14          1             0       -1.497965    3.872152    0.385523
   15          1             0       -4.439673    4.239228   -0.492155
   16          1             0       -3.828902   -0.349036    0.170863
   17          1             0       -1.667871    1.706601   -0.360705
   18          1             0       -4.729549    1.933085    0.238276
 ---------------------------------------------------------------------
                    Distance matrix (angstroms):
                    1          2          3          4          5
     1  C    0.000000
     2  C    1.331042   0.000000
     3  C    2.464099   1.447720   0.000000
     4  C    3.001687   2.466740   1.349838   0.000000
     5  N    4.407861   3.775183   2.423334   1.422506   0.000000
     6  C    5.370853   4.967680   3.730678   2.501130   1.413418
     7  O    5.418065   5.298579   4.288633   2.943829   2.360331
     8  O    6.597798   6.046341   4.688431   3.634424   2.273327
     9  C    7.766420   7.334105   6.026942   4.877321   3.605783
    10  H    7.942855   7.642230   6.386927   5.203666   4.023868
    11  H    7.922376   7.558095   6.333641   5.114804   3.986083
    12  H    8.578197   8.024392   6.651376   5.617114   4.251965
    13  H    1.084917   2.109844   3.447668   4.069335   5.482044
    14  H    1.085332   2.126828   2.764269   2.816421   4.155869
    15  H    2.105287   1.097079   2.156303   3.359867   4.550191
    16  H    4.917866   4.070059   2.624615   2.093218   1.001683
    17  H    2.796944   2.750687   2.148100   1.101705   2.148238
    18  H    3.354639   2.157127   1.099570   2.138092   2.684807
                    6          7          8          9         10
     6  C    0.000000
     7  O    1.225326   0.000000
     8  O    1.373978   2.295890   0.000000
     9  C    2.399652   2.743552   1.419932   0.000000
    10  H    2.774320   2.874597   2.072625   1.095306   0.000000
    11  H    2.691513   2.693657   2.098416   1.096717   1.804302
    12  H    3.253031   3.786969   1.988611   1.093903   1.790721
    13  H    6.431847   6.418372   7.672310   8.826822   8.996445
    14  H    4.890362   4.751086   6.185718   7.239419   7.307345
    15  H    5.823553   6.247969   6.805047   8.137527   8.524940
    16  H    2.079529   3.212860   2.371450   3.791271   4.292663
    17  H    2.698502   2.647778   4.025235   5.065156   5.287846
    18  H    4.095884   4.890580   4.780123   6.186765   6.604939
                   11         12         13         14         15
    11  H    0.000000
    12  H    1.789714   0.000000
    13  H    8.945297   9.649636   0.000000
    14  H    7.371976   8.128862   1.836475   0.000000
    15  H    8.361819   8.749396   2.443024   3.091716   0.000000
    16  H    4.323992   4.198832   5.973835   4.826777   4.675981
    17  H    5.142376   5.947370   3.807387   2.296810   3.756909
    18  H    6.612155   6.651642   4.240017   3.771578   2.436361
                   16         17         18
    16  H    0.000000
    17  H    3.029565   0.000000
    18  H    2.454340   3.127930   0.000000
 Symmetry turned off by external request.
 Stoichiometry    C6H9NO2
 Framework group  C1[X(C6H9NO2)]
 Deg. of freedom    48
 Full point group                 C1
 Rotational constants (GHZ):      6.2682125      0.5938203      0.5464962
 Standard basis: VSTO-3G (5D, 7F)
 Integral buffers will be    131072 words long.
 Raffenetti 1 integral format.
 Two-electron integral symmetry is turned off.
    45 basis functions,   135 primitive gaussians,    45 cartesian basis functions
    25 alpha electrons       25 beta electrons
       nuclear repulsion energy       222.9052206368 Hartrees.
 NAtoms=   18 NActive=   18 NUniq=   18 SFac= 7.50D-01 NAtFMM=   80 NAOKFM=F Big=F
 Initial guess read from the read-write file:
 RHF-PM3 calculation of energy and first derivatives.
 MO and density RWFs will be updated without deorthogonalization.
 Closed-shell calculation:      25 occupied levels.
 NNHCO=    0.
 References:
  H: (PM3): J. J. P. STEWART, J. COMP. CHEM.     10, 209 (1989).
  C: (PM3): J. J. P. STEWART, J. COMP. CHEM.     10, 209 (1989).
  N: (PM3): J. J. P. STEWART, J. COMP. CHEM.     10, 209 (1989).
  O: (PM3): J. J. P. STEWART, J. COMP. CHEM.     10, 209 (1989).
 Ext34=T Pulay=F Camp-King=F BShift= 0.00D+00
 It=  1 PL= 0.989D+00 DiagD=T ESCF=      5.894485 Diff= 0.156D+01 RMSDP= 0.222D+00.
 It=  2 PL= 0.442D-01 DiagD=T ESCF=     -1.792853 Diff=-0.769D+01 RMSDP= 0.531D-02.
 It=  3 PL= 0.226D-01 DiagD=F ESCF=     -2.276993 Diff=-0.484D+00 RMSDP= 0.285D-02.
 It=  4 PL= 0.496D-02 DiagD=F ESCF=     -2.368320 Diff=-0.913D-01 RMSDP= 0.356D-03.
 It=  5 PL= 0.216D-02 DiagD=F ESCF=     -2.339812 Diff= 0.285D-01 RMSDP= 0.170D-03.
 It=  6 PL= 0.102D-02 DiagD=F ESCF=     -2.340205 Diff=-0.393D-03 RMSDP= 0.192D-03.
 It=  7 PL= 0.108D-03 DiagD=F ESCF=     -2.340541 Diff=-0.336D-03 RMSDP= 0.120D-04.
 It=  8 PL= 0.612D-04 DiagD=F ESCF=     -2.340364 Diff= 0.177D-03 RMSDP= 0.602D-05.
 It=  9 PL= 0.347D-04 DiagD=F ESCF=     -2.340365 Diff=-0.481D-06 RMSDP= 0.745D-05.
 It= 10 PL= 0.820D-05 DiagD=F ESCF=     -2.340365 Diff=-0.480D-06 RMSDP= 0.526D-06.
 It= 11 PL= 0.362D-05 DiagD=F ESCF=     -2.340365 Diff= 0.262D-06 RMSDP= 0.254D-06.
 It= 12 PL= 0.170D-05 DiagD=F ESCF=     -2.340365 Diff=-0.815D-09 RMSDP= 0.299D-06.
 It= 13 PL= 0.236D-06 DiagD=F ESCF=     -2.340365 Diff=-0.759D-09 RMSDP= 0.282D-07.
 Energy=   -0.086008515260 NIter=  14.
 Dipole moment=      -0.741157      -0.412435       0.110958
 -------------------------------------------------------------------
 Center     Atomic                   Forces (Hartrees/Bohr)
 Number     Number              X              Y              Z
 -------------------------------------------------------------------
    1          6          -0.000562256   -0.000477322   -0.002522384
    2          6           0.000961174    0.001557308   -0.004397029
    3          6           0.001897994   -0.010387048    0.003345464
    4          6           0.000170304    0.002928637    0.001703192
    5          7          -0.004993057   -0.004507233    0.001114985
    6          6           0.006772292    0.003530745   -0.001981002
    7          8          -0.008680177   -0.003026353    0.001625155
    8          8           0.002196971   -0.001868387   -0.001234026
    9          6          -0.000607531    0.005658772    0.000450357
   10          1           0.000887685    0.000363237   -0.001419319
   11          1           0.000231848    0.000937527    0.001527737
   12          1          -0.001902574    0.002207914    0.000363188
   13          1           0.001671012    0.000306398    0.001255635
   14          1           0.000910942    0.001225360    0.001788968
   15          1          -0.001229752   -0.000171465    0.002042468
   16          1           0.002430075    0.003180250   -0.000748147
   17          1          -0.000361224   -0.001366158   -0.001037797
   18          1           0.000206274   -0.000092182   -0.001877444
 -------------------------------------------------------------------
 Cartesian Forces:  Max     0.010387048 RMS     0.002905513

 GradGradGradGradGradGradGradGradGradGradGradGradGradGradGradGradGradGrad
 Berny optimization.
 Internal  Forces:  Max     0.009234431 RMS     0.003207794
 Search for a local minimum.
 Step number   2 out of a maximum of  71
 All quantities printed in internal units (Hartrees-Bohrs-Radians)
   2   1  0.2227186E-02  0.6744273E-02  0.3302337    
 Update second derivatives using D2CorL and points  1  2
 Trust test= 8.19D-01 RLast= 2.41D-01 DXMaxT set to 4.24D-01
 RFO step:  Lambda= 2.57955285D-04.
 Quartic linear search produced a step of -0.10323.
 Iteration  1 RMS(Cart)=  0.03835971 RMS(Int)=  0.00175092
 Iteration  2 RMS(Cart)=  0.00228877 RMS(Int)=  0.00076878
 Iteration  3 RMS(Cart)=  0.00000328 RMS(Int)=  0.00076878
 Iteration  4 RMS(Cart)=  0.00000000 RMS(Int)=  0.00076878
 Variable       Old X    -DE/DX   Delta X   Delta X   Delta X     New X
                                 (Linear)    (Quad)   (Total)
    R1        2.51531   0.00233   0.00144  -0.00010   0.00134   2.51665
    R2        2.05020   0.00025   0.00014   0.00015   0.00029   2.05049
    R3        2.05098   0.00071  -0.00006   0.00134   0.00128   2.05226
    R4        2.73579   0.00277  -0.00044   0.00539   0.00495   2.74075
    R5        2.07318   0.00026  -0.00161   0.00352   0.00191   2.07509
    R6        2.55082  -0.00818  -0.00201  -0.00471  -0.00672   2.54410
    R7        2.07789  -0.00059  -0.00221   0.00308   0.00086   2.07875
    R8        2.68815  -0.00589  -0.01027   0.01196   0.00169   2.68983
    R9        2.08192  -0.00055  -0.00255   0.00353   0.00098   2.08290
   R10        2.67097  -0.00603  -0.00871   0.00936   0.00065   2.67162
   R11        1.89291  -0.00344   0.00173  -0.00772  -0.00599   1.88692
   R12        2.31553  -0.00923  -0.00051  -0.00505  -0.00557   2.30996
   R13        2.59644  -0.00703  -0.00302  -0.00209  -0.00512   2.59133
   R14        2.68328  -0.00812   0.00164  -0.01419  -0.01256   2.67072
   R15        2.06983  -0.00061  -0.00024  -0.00057  -0.00081   2.06901
   R16        2.07249  -0.00117  -0.00036  -0.00138  -0.00174   2.07075
   R17        2.06718  -0.00056  -0.00006  -0.00074  -0.00080   2.06638
    A1        2.11801   0.00166  -0.00178   0.01162   0.00744   2.12545
    A2        2.14683   0.00088  -0.00072   0.00490   0.00178   2.14861
    A3        2.01764  -0.00233   0.00257  -0.01211  -0.01195   2.00570
    A4        2.17966  -0.00026   0.00167  -0.00457  -0.00509   2.17457
    A5        2.09310   0.00093  -0.00218   0.00880   0.00442   2.09752
    A6        2.00981  -0.00051   0.00048  -0.00038  -0.00209   2.00772
    A7        2.15845  -0.00212   0.00333  -0.01318  -0.01089   2.14756
    A8        2.00808   0.00125  -0.00093   0.00620   0.00423   2.01231
    A9        2.11635   0.00096  -0.00248   0.00881   0.00530   2.12165
   A10        2.12682  -0.00318   0.00032  -0.00725  -0.00742   2.11940
   A11        2.13026   0.00285   0.00008   0.00776   0.00735   2.13760
   A12        2.02587   0.00037  -0.00037   0.00062  -0.00024   2.02563
   A13        2.15994  -0.00712   0.00152  -0.02151  -0.02005   2.13989
   A14        2.06617   0.00150   0.00330  -0.00413  -0.00090   2.06527
   A15        2.05708   0.00562  -0.00482   0.02564   0.02076   2.07783
   A16        2.21203   0.00134  -0.00094   0.00504   0.00395   2.21598
   A17        1.90730   0.00048  -0.00084   0.00235   0.00136   1.90866
   A18        2.16385  -0.00182   0.00178  -0.00725  -0.00561   2.15823
   A19        2.06602  -0.00781  -0.00767  -0.00154  -0.00921   2.05681
   A20        1.92535   0.00139  -0.00069   0.00735   0.00667   1.93202
   A21        1.96088  -0.00027  -0.00187   0.00392   0.00206   1.96294
   A22        1.81189  -0.00404   0.00750  -0.02931  -0.02179   1.79011
   A23        1.93377  -0.00105  -0.00001  -0.00499  -0.00499   1.92878
   A24        1.91577   0.00177  -0.00213   0.00973   0.00762   1.92339
   A25        1.91234   0.00215  -0.00256   0.01255   0.01000   1.92234
    D1        3.12069   0.00323   0.00432   0.07685   0.08110  -3.08140
    D2        0.01875  -0.00179  -0.00462  -0.04665  -0.05138  -0.03263
    D3        0.02118  -0.00284   0.00004  -0.05470  -0.05448  -0.03330
    D4       -0.46744  -0.00245  -0.00843  -0.04431  -0.05248  -0.51992
    D5        2.64799   0.00108  -0.00043   0.03523   0.03481   2.68280
    D6        2.63618   0.00239   0.00020   0.07413   0.07404   2.71023
    D7        3.14114   0.00161   0.00418   0.03750   0.04167  -3.10037
    D8        0.02383  -0.00091   0.00096  -0.02059  -0.01970   0.00414
    D9        0.02728  -0.00213  -0.00424  -0.04674  -0.05092  -0.02365
   D10       -3.12452  -0.00123   0.00002  -0.02755  -0.02740   3.13126
   D11        0.01700  -0.00037   0.00085  -0.00691  -0.00610   0.01090
   D12       -0.00585   0.00118   0.00306   0.02736   0.03034   0.02449
   D13        0.02926   0.00034   0.00045   0.00811   0.00863   0.03789
   D14       -3.10761  -0.00059  -0.00017  -0.02194  -0.02216  -3.12977
   D15       -3.11227  -0.00051  -0.00035  -0.01243  -0.01281  -3.12508
   D16        3.12793   0.00058   0.00058   0.01730   0.01784  -3.13741
   D17       -0.00910  -0.00033  -0.00002  -0.01178  -0.01175  -0.02085
   D18        1.22678  -0.00055   0.00327  -0.01760  -0.01433   1.21245
   D19       -0.94029  -0.00002   0.00511  -0.01944  -0.01434  -0.95463
         Item               Value     Threshold  Converged?
 Maximum Force            0.009234     0.000450     NO 
 RMS     Force            0.003208     0.000300     NO 
 Maximum Displacement     0.140365     0.001800     NO 
 RMS     Displacement     0.038697     0.001200     NO 
 Predicted change in Energy=-1.015966D-03
 GradGradGradGradGradGradGradGradGradGradGradGradGradGradGradGradGradGrad

                          Input orientation:                          
 ---------------------------------------------------------------------
 Center     Atomic     Atomic              Coordinates (Angstroms)
 Number     Number      Type              X           Y           Z
 ---------------------------------------------------------------------
    1          6             0       -2.401342    4.347842    0.068809
    2          6             0       -3.531325    3.688981   -0.181401
    3          6             0       -3.707334    2.260023   -0.006506
    4          6             0       -2.702234    1.374569   -0.141458
    5          7             0       -2.923751   -0.025408   -0.010840
    6          6             0       -1.889347   -0.977547   -0.159690
    7          8             0       -0.707156   -0.751339   -0.372919
    8          8             0       -2.404258   -2.237686    0.005536
    9          6             0       -1.517208   -3.332640   -0.102152
   10          1             0       -0.825458   -3.355116    0.746217
   11          1             0       -0.964493   -3.332350   -1.048339
   12          1             0       -2.193069   -4.191260   -0.061141
   13          1             0       -2.336044    5.426814   -0.025704
   14          1             0       -1.509018    3.867947    0.459801
   15          1             0       -4.439637    4.237992   -0.463105
   16          1             0       -3.851856   -0.342933    0.175787
   17          1             0       -1.673329    1.680763   -0.391450
   18          1             0       -4.739799    1.933877    0.187665
 ---------------------------------------------------------------------
                    Distance matrix (angstroms):
                    1          2          3          4          5
     1  C    0.000000
     2  C    1.331752   0.000000
     3  C    2.463793   1.450341   0.000000
     4  C    2.995847   2.458758   1.346280   0.000000
     5  N    4.405062   3.767615   2.416033   1.423399   0.000000
     6  C    5.354822   4.947024   3.716235   2.488688   1.413760
     7  O    5.391385   5.265838   4.266571   2.924619   2.360375
     8  O    6.585833   6.035777   4.682686   3.627504   2.272513
     9  C    7.733093   7.305211   6.006970   4.854240   3.595064
    10  H    7.891632   7.602730   6.356225   5.165286   4.007858
    11  H    7.892903   7.525909   6.315318   5.098752   3.981327
    12  H    8.542630   7.993972   6.626843   5.589647   4.229746
    13  H    1.085070   2.114947   3.450995   4.070404   5.483826
    14  H    1.086009   2.129059   2.763233   2.828818   4.169075
    15  H    2.109419   1.098090   2.158034   3.364702   4.547421
    16  H    4.911090   4.060376   2.613331   2.090954   0.998514
    17  H    2.802704   2.743940   2.149628   1.102223   2.149287
    18  H    3.362996   2.162640   1.100026   2.138415   2.678849
                    6          7          8          9         10
     6  C    0.000000
     7  O    1.222380   0.000000
     8  O    1.371271   2.287490   0.000000
     9  C    2.385008   2.718936   1.413287   0.000000
    10  H    2.757782   2.836568   2.071200   1.094876   0.000000
    11  H    2.681446   2.680305   2.093291   1.095794   1.800078
    12  H    3.229537   3.760080   1.966087   1.093480   1.794805
    13  H    6.421318   6.398704   7.664867   8.797975   8.944274
    14  H    4.899717   4.761744   6.187614   7.222487   7.260987
    15  H    5.813595   6.231611   6.804176   8.123137   8.495884
    16  H    2.089671   3.218232   2.390526   3.803444   4.307868
    17  H    2.677123   2.617051   4.005758   5.024169   5.231945
    18  H    4.089269   4.877177   4.784335   6.181043   6.603597
                   11         12         13         14         15
    11  H    0.000000
    12  H    1.794905   0.000000
    13  H    8.924679   9.619202   0.000000
    14  H    7.376671   8.104945   1.830233   0.000000
    15  H    8.350402   8.732751   2.455549   3.094708   0.000000
    16  H    4.332663   4.197301   5.968942   4.827118   4.662461
    17  H    5.105415   5.904226   3.821761   2.352743   3.767893
    18  H    6.596499   6.638151   4.245489   3.775266   2.412996
                   16         17         18
    16  H    0.000000
    17  H    3.027058   0.000000
    18  H    2.443859   3.130923   0.000000
 Symmetry turned off by external request.
 Stoichiometry    C6H9NO2
 Framework group  C1[X(C6H9NO2)]
 Deg. of freedom    48
 Full point group                 C1
 Rotational constants (GHZ):      6.2754819      0.5977393      0.5501374
 Standard basis: VSTO-3G (5D, 7F)
 Integral buffers will be    131072 words long.
 Raffenetti 1 integral format.
 Two-electron integral symmetry is turned off.
    45 basis functions,   135 primitive gaussians,    45 cartesian basis functions
    25 alpha electrons       25 beta electrons
       nuclear repulsion energy       223.3738542185 Hartrees.
 NAtoms=   18 NActive=   18 NUniq=   18 SFac= 7.50D-01 NAtFMM=   80 NAOKFM=F Big=F
 Initial guess read from the read-write file:
 RHF-PM3 calculation of energy and first derivatives.
 MO and density RWFs will be updated without deorthogonalization.
 Closed-shell calculation:      25 occupied levels.
 NNHCO=    0.
 References:
  H: (PM3): J. J. P. STEWART, J. COMP. CHEM.     10, 209 (1989).
  C: (PM3): J. J. P. STEWART, J. COMP. CHEM.     10, 209 (1989).
  N: (PM3): J. J. P. STEWART, J. COMP. CHEM.     10, 209 (1989).
  O: (PM3): J. J. P. STEWART, J. COMP. CHEM.     10, 209 (1989).
 Ext34=T Pulay=F Camp-King=F BShift= 0.00D+00
 It=  1 PL= 0.989D+00 DiagD=T ESCF=      5.715799 Diff= 0.138D+01 RMSDP= 0.222D+00.
 It=  2 PL= 0.441D-01 DiagD=T ESCF=     -1.826896 Diff=-0.754D+01 RMSDP= 0.516D-02.
 It=  3 PL= 0.205D-01 DiagD=F ESCF=     -2.291578 Diff=-0.465D+00 RMSDP= 0.267D-02.
 It=  4 PL= 0.476D-02 DiagD=F ESCF=     -2.374667 Diff=-0.831D-01 RMSDP= 0.331D-03.
 It=  5 PL= 0.208D-02 DiagD=F ESCF=     -2.349196 Diff= 0.255D-01 RMSDP= 0.160D-03.
 It=  6 PL= 0.981D-03 DiagD=F ESCF=     -2.349548 Diff=-0.353D-03 RMSDP= 0.183D-03.
 It=  7 PL= 0.114D-03 DiagD=F ESCF=     -2.349857 Diff=-0.309D-03 RMSDP= 0.124D-04.
 It=  8 PL= 0.663D-04 DiagD=F ESCF=     -2.349695 Diff= 0.162D-03 RMSDP= 0.628D-05.
 It=  9 PL= 0.379D-04 DiagD=F ESCF=     -2.349695 Diff=-0.510D-06 RMSDP= 0.791D-05.
 It= 10 PL= 0.836D-05 DiagD=F ESCF=     -2.349696 Diff=-0.523D-06 RMSDP= 0.553D-06.
 It= 11 PL= 0.374D-05 DiagD=F ESCF=     -2.349696 Diff= 0.285D-06 RMSDP= 0.273D-06.
 It= 12 PL= 0.176D-05 DiagD=F ESCF=     -2.349696 Diff=-0.905D-09 RMSDP= 0.327D-06.
 It= 13 PL= 0.252D-06 DiagD=F ESCF=     -2.349696 Diff=-0.867D-09 RMSDP= 0.307D-07.
 Energy=   -0.086351418532 NIter=  14.
 Dipole moment=      -0.759266      -0.400711       0.129436
 -------------------------------------------------------------------
 Center     Atomic                   Forces (Hartrees/Bohr)
 Number     Number              X              Y              Z
 -------------------------------------------------------------------
    1          6          -0.002364208    0.000228470    0.004000979
    2          6          -0.001556874    0.001605068    0.005309285
    3          6          -0.000785500   -0.004474159   -0.004069809
    4          6           0.000826203   -0.001202174   -0.002129138
    5          7          -0.000061979   -0.001677089    0.000559565
    6          6           0.001016671    0.004156499    0.002296045
    7          8          -0.003447668   -0.001275572   -0.000369782
    8          8           0.000309418    0.000459674   -0.001667651
    9          6          -0.000543975    0.000749492    0.000459843
   10          1           0.000726552    0.000179074   -0.000900320
   11          1           0.000208370    0.000526960    0.000785332
   12          1          -0.000468052    0.000590639    0.000150796
   13          1           0.001560526    0.000007041   -0.001356937
   14          1           0.001714227    0.000209600   -0.002701286
   15          1           0.001026831   -0.000697372   -0.002768355
   16          1           0.000970808    0.001177282   -0.000290275
   17          1          -0.000340739   -0.000817404    0.001535741
   18          1           0.001209389    0.000253972    0.001155966
 -------------------------------------------------------------------
 Cartesian Forces:  Max     0.005309285 RMS     0.001817074

 GradGradGradGradGradGradGradGradGradGradGradGradGradGradGradGradGradGrad
 Berny optimization.
 Internal  Forces:  Max     0.005396412 RMS     0.001959479
 Search for a local minimum.
 Step number   3 out of a maximum of  71
 All quantities printed in internal units (Hartrees-Bohrs-Radians)
   2   1  0.1348407E-02  0.2767965E-02  0.4871473    
 Update second derivatives using D2CorL and points  2  3
 Trust test= 3.38D-01 RLast= 1.79D-01 DXMaxT set to 4.24D-01
 RFO step:  Lambda= 1.02444707D-04.
 Quartic linear search produced a step of -0.39904.
 Iteration  1 RMS(Cart)=  0.03043420 RMS(Int)=  0.00071451
 Iteration  2 RMS(Cart)=  0.00081775 RMS(Int)=  0.00007686
 Iteration  3 RMS(Cart)=  0.00000054 RMS(Int)=  0.00007686
 Variable       Old X    -DE/DX   Delta X   Delta X   Delta X     New X
                                 (Linear)    (Quad)   (Total)
    R1        2.51665   0.00098  -0.00054   0.00190   0.00136   2.51801
    R2        2.05049   0.00022  -0.00012   0.00046   0.00035   2.05083
    R3        2.05226   0.00034  -0.00051   0.00120   0.00069   2.05295
    R4        2.74075   0.00108  -0.00198   0.00426   0.00228   2.74303
    R5        2.07509  -0.00049  -0.00076   0.00042  -0.00034   2.07475
    R6        2.54410  -0.00253   0.00268  -0.00683  -0.00414   2.53996
    R7        2.07875  -0.00101  -0.00034  -0.00096  -0.00130   2.07745
    R8        2.68983  -0.00451  -0.00067  -0.00459  -0.00527   2.68457
    R9        2.08290  -0.00089  -0.00039  -0.00077  -0.00116   2.08174
   R10        2.67162  -0.00532  -0.00026  -0.00555  -0.00581   2.66581
   R11        1.88692  -0.00133   0.00239  -0.00473  -0.00234   1.88458
   R12        2.30996  -0.00351   0.00222  -0.00530  -0.00308   2.30688
   R13        2.59133  -0.00253   0.00204  -0.00612  -0.00408   2.58725
   R14        2.67072  -0.00167   0.00501  -0.00999  -0.00498   2.66574
   R15        2.06901  -0.00024   0.00032  -0.00089  -0.00056   2.06845
   R16        2.07075  -0.00057   0.00070  -0.00189  -0.00120   2.06955
   R17        2.06638  -0.00017   0.00032  -0.00078  -0.00046   2.06591
    A1        2.12545   0.00110  -0.00297   0.00795   0.00479   2.13024
    A2        2.14861   0.00091  -0.00071   0.00441   0.00351   2.15212
    A3        2.00570  -0.00121   0.00477  -0.00945  -0.00487   2.00083
    A4        2.17457   0.00006   0.00203  -0.00140   0.00076   2.17533
    A5        2.09752   0.00039  -0.00176   0.00409   0.00247   2.09998
    A6        2.00772   0.00011   0.00084  -0.00091   0.00006   2.00778
    A7        2.14756  -0.00063   0.00434  -0.00673  -0.00217   2.14539
    A8        2.01231   0.00056  -0.00169   0.00368   0.00221   2.01452
    A9        2.12165   0.00031  -0.00211   0.00333   0.00143   2.12308
   A10        2.11940  -0.00148   0.00296  -0.00800  -0.00497   2.11443
   A11        2.13760   0.00151  -0.00293   0.00855   0.00569   2.14330
   A12        2.02563   0.00008   0.00010  -0.00037  -0.00019   2.02544
   A13        2.13989  -0.00353   0.00800  -0.01922  -0.01121   2.12868
   A14        2.06527   0.00102   0.00036   0.00116   0.00153   2.06679
   A15        2.07783   0.00253  -0.00828   0.01810   0.00983   2.08766
   A16        2.21598   0.00060  -0.00158   0.00353   0.00194   2.21793
   A17        1.90866   0.00021  -0.00054   0.00119   0.00064   1.90930
   A18        2.15823  -0.00076   0.00224  -0.00452  -0.00229   2.15594
   A19        2.05681  -0.00251   0.00368  -0.01262  -0.00894   2.04787
   A20        1.93202   0.00077  -0.00266   0.00565   0.00299   1.93501
   A21        1.96294  -0.00042  -0.00082  -0.00049  -0.00131   1.96164
   A22        1.79011  -0.00084   0.00869  -0.01503  -0.00634   1.78377
   A23        1.92878  -0.00088   0.00199  -0.00584  -0.00385   1.92493
   A24        1.92339   0.00060  -0.00304   0.00686   0.00382   1.92721
   A25        1.92234   0.00084  -0.00399   0.00887   0.00488   1.92722
    D1       -3.08140  -0.00540  -0.03236  -0.01933  -0.05177  -3.13316
    D2       -0.03263   0.00231   0.02050   0.00505   0.02563  -0.00700
    D3       -0.03330   0.00527   0.02174   0.01982   0.04156   0.00826
    D4       -0.51992   0.00417   0.02094   0.02697   0.04786  -0.47206
    D5        2.68280  -0.00036  -0.01389   0.02172   0.00780   2.69060
    D6        2.71023  -0.00319  -0.02955   0.00348  -0.02599   2.68424
    D7       -3.10037  -0.00278  -0.01663  -0.01244  -0.02910  -3.12948
    D8        0.00414   0.00061   0.00786  -0.00638   0.00154   0.00567
    D9       -0.02365   0.00204   0.02032  -0.00688   0.01341  -0.01024
   D10        3.13126   0.00134   0.01093  -0.00232   0.00854   3.13980
   D11        0.01090   0.00018   0.00243  -0.00481  -0.00236   0.00854
   D12        0.02449  -0.00188  -0.01211  -0.00821  -0.02025   0.00424
   D13        0.03789  -0.00108  -0.00344  -0.01130  -0.01479   0.02310
   D14       -3.12977   0.00081   0.00884  -0.00314   0.00573  -3.12404
   D15       -3.12508   0.00007   0.00511  -0.00899  -0.00386  -3.12894
   D16       -3.13741  -0.00095  -0.00712  -0.00230  -0.00939   3.13639
   D17       -0.02085   0.00088   0.00469   0.00567   0.01033  -0.01052
   D18        1.21245  -0.00080   0.00572  -0.02598  -0.02027   1.19218
   D19       -0.95463   0.00009   0.00572  -0.02225  -0.01652  -0.97116
         Item               Value     Threshold  Converged?
 Maximum Force            0.005396     0.000450     NO 
 RMS     Force            0.001959     0.000300     NO 
 Maximum Displacement     0.095597     0.001800     NO 
 RMS     Displacement     0.030561     0.001200     NO 
 Predicted change in Energy=-6.519506D-04
 GradGradGradGradGradGradGradGradGradGradGradGradGradGradGradGradGradGrad

                          Input orientation:                          
 ---------------------------------------------------------------------
 Center     Atomic     Atomic              Coordinates (Angstroms)
 Number     Number      Type              X           Y           Z
 ---------------------------------------------------------------------
    1          6             0       -2.393257    4.326700    0.086378
    2          6             0       -3.534955    3.684098   -0.156666
    3          6             0       -3.721374    2.251437   -0.016223
    4          6             0       -2.716537    1.367997   -0.144313
    5          7             0       -2.944422   -0.028115   -0.013628
    6          6             0       -1.903142   -0.970465   -0.146837
    7          8             0       -0.723205   -0.738687   -0.357208
    8          8             0       -2.410561   -2.233089    0.004079
    9          6             0       -1.507610   -3.311380   -0.105020
   10          1             0       -0.808783   -3.321508    0.737382
   11          1             0       -0.959475   -3.302270   -1.053092
   12          1             0       -2.174190   -4.176615   -0.058081
   13          1             0       -2.302750    5.402398   -0.025238
   14          1             0       -1.484368    3.826794    0.409213
   15          1             0       -4.426880    4.239750   -0.474673
   16          1             0       -3.873082   -0.342368    0.169107
   17          1             0       -1.679532    1.670799   -0.359903
   18          1             0       -4.752537    1.927054    0.183832
 ---------------------------------------------------------------------
                    Distance matrix (angstroms):
                    1          2          3          4          5
     1  C    0.000000
     2  C    1.332472   0.000000
     3  C    2.465996   1.451548   0.000000
     4  C    2.985239   2.456478   1.344087   0.000000
     5  N    4.390695   3.761611   2.408323   1.420613   0.000000
     6  C    5.324901   4.932329   3.701849   2.475889   1.410685
     7  O    5.352008   5.244729   4.248073   2.908060   2.357278
     8  O    6.560328   6.025214   4.672217   3.617107   2.268750
     9  C    7.691637   7.283510   5.987786   4.833179   3.585054
    10  H    7.837695   7.570327   6.333153   5.138908   3.996424
    11  H    7.845719   7.499734   6.288628   5.071936   3.967441
    12  H    8.507363   7.978233   6.611761   5.571741   4.219630
    13  H    1.085254   2.118528   3.455594   4.057313   5.468305
    14  H    1.086374   2.132016   2.768924   2.805408   4.143776
    15  H    2.111388   1.097910   2.159005   3.358776   4.541467
    16  H    4.898666   4.053750   2.604840   2.088344   0.997275
    17  H    2.786105   2.745410   2.150436   1.101611   2.146197
    18  H    3.366601   2.164636   1.099338   2.136708   2.670386
                    6          7          8          9         10
     6  C    0.000000
     7  O    1.220749   0.000000
     8  O    1.369112   2.282747   0.000000
     9  C    2.374464   2.701415   1.410651   0.000000
    10  H    2.739866   2.806495   2.070768   1.094579   0.000000
    11  H    2.673783   2.666840   2.089595   1.095159   1.796907
    12  H    3.218810   3.743552   1.958833   1.093235   1.796748
    13  H    6.386538   6.349653   7.636304   8.750346   8.883697
    14  H    4.847500   4.691523   6.143626   7.156711   7.187651
    15  H    5.798541   6.206113   6.796498   8.104218   8.469494
    16  H    2.091648   3.218043   2.396044   3.806000   4.311396
    17  H    2.659262   2.592333   3.988386   4.991656   5.185110
    18  H    4.077256   4.861524   4.777442   6.168807   6.588400
                   11         12         13         14         15
    11  H    0.000000
    12  H    1.797236   0.000000
    13  H    8.867475   9.579932   0.000000
    14  H    7.296396   8.046662   1.827847   0.000000
    15  H    8.321029   8.722577   2.462858   3.100027   0.000000
    16  H    4.329421   4.199916   5.958696   4.810979   4.660145
    17  H    5.072514   5.876055   3.798057   2.297378   3.763058
    18  H    6.577471   6.630322   4.257134   3.786917   2.426571
                   16         17         18
    16  H    0.000000
    17  H    3.023963   0.000000
    18  H    2.433914   3.131242   0.000000
 Symmetry turned off by external request.
 Stoichiometry    C6H9NO2
 Framework group  C1[X(C6H9NO2)]
 Deg. of freedom    48
 Full point group                 C1
 Rotational constants (GHZ):      6.2545057      0.6029639      0.5542274
 Standard basis: VSTO-3G (5D, 7F)
 Integral buffers will be    131072 words long.
 Raffenetti 1 integral format.
 Two-electron integral symmetry is turned off.
    45 basis functions,   135 primitive gaussians,    45 cartesian basis functions
    25 alpha electrons       25 beta electrons
       nuclear repulsion energy       223.8942390494 Hartrees.
 NAtoms=   18 NActive=   18 NUniq=   18 SFac= 7.50D-01 NAtFMM=   80 NAOKFM=F Big=F
 Initial guess read from the read-write file:
 RHF-PM3 calculation of energy and first derivatives.
 MO and density RWFs will be updated without deorthogonalization.
 Closed-shell calculation:      25 occupied levels.
 NNHCO=    0.
 References:
  H: (PM3): J. J. P. STEWART, J. COMP. CHEM.     10, 209 (1989).
  C: (PM3): J. J. P. STEWART, J. COMP. CHEM.     10, 209 (1989).
  N: (PM3): J. J. P. STEWART, J. COMP. CHEM.     10, 209 (1989).
  O: (PM3): J. J. P. STEWART, J. COMP. CHEM.     10, 209 (1989).
 Ext34=T Pulay=F Camp-King=F BShift= 0.00D+00
 It=  1 PL= 0.989D+00 DiagD=T ESCF=      5.709683 Diff= 0.137D+01 RMSDP= 0.222D+00.
 It=  2 PL= 0.440D-01 DiagD=T ESCF=     -1.848785 Diff=-0.756D+01 RMSDP= 0.513D-02.
 It=  3 PL= 0.206D-01 DiagD=F ESCF=     -2.310898 Diff=-0.462D+00 RMSDP= 0.265D-02.
 It=  4 PL= 0.474D-02 DiagD=F ESCF=     -2.392754 Diff=-0.819D-01 RMSDP= 0.327D-03.
 It=  5 PL= 0.205D-02 DiagD=F ESCF=     -2.367644 Diff= 0.251D-01 RMSDP= 0.157D-03.
 It=  6 PL= 0.963D-03 DiagD=F ESCF=     -2.367987 Diff=-0.343D-03 RMSDP= 0.179D-03.
 It=  7 PL= 0.104D-03 DiagD=F ESCF=     -2.368285 Diff=-0.298D-03 RMSDP= 0.118D-04.
 It=  8 PL= 0.609D-04 DiagD=F ESCF=     -2.368129 Diff= 0.156D-03 RMSDP= 0.592D-05.
 It=  9 PL= 0.345D-04 DiagD=F ESCF=     -2.368129 Diff=-0.468D-06 RMSDP= 0.735D-05.
 It= 10 PL= 0.810D-05 DiagD=F ESCF=     -2.368129 Diff=-0.470D-06 RMSDP= 0.507D-06.
 It= 11 PL= 0.357D-05 DiagD=F ESCF=     -2.368129 Diff= 0.256D-06 RMSDP= 0.244D-06.
 It= 12 PL= 0.166D-05 DiagD=F ESCF=     -2.368129 Diff=-0.788D-09 RMSDP= 0.283D-06.
 It= 13 PL= 0.221D-06 DiagD=F ESCF=     -2.368129 Diff=-0.687D-09 RMSDP= 0.259D-07.
 Energy=   -0.087028850106 NIter=  14.
 Dipole moment=      -0.743112      -0.403741       0.115356
 -------------------------------------------------------------------
 Center     Atomic                   Forces (Hartrees/Bohr)
 Number     Number              X              Y              Z
 -------------------------------------------------------------------
    1          6          -0.001516156   -0.000771767   -0.000736825
    2          6           0.000186701    0.001028244    0.000519652
    3          6          -0.001619378   -0.000158141   -0.000562917
    4          6           0.001684155   -0.000825150   -0.000302145
    5          7           0.000156212   -0.001492199    0.000242183
    6          6          -0.001547138    0.003189778    0.000603332
    7          8           0.000373952   -0.000201313   -0.000244682
    8          8          -0.000168493    0.000480275   -0.000849165
    9          6          -0.000396160   -0.001861176    0.000722190
   10          1           0.000672984   -0.000039455   -0.000484422
   11          1           0.000202637    0.000199883    0.000229347
   12          1           0.000043074   -0.000046014    0.000053005
   13          1           0.000588648    0.000061463    0.000151095
   14          1           0.000441352    0.000446231    0.000194619
   15          1           0.000303165   -0.000280765    0.000267514
   16          1           0.000285120    0.000377864   -0.000131505
   17          1          -0.000236397   -0.000411014    0.000323079
   18          1           0.000545721    0.000303256    0.000005644
 -------------------------------------------------------------------
 Cartesian Forces:  Max     0.003189778 RMS     0.000802937

 GradGradGradGradGradGradGradGradGradGradGradGradGradGradGradGradGradGrad
 Berny optimization.
 Internal  Forces:  Max     0.001774520 RMS     0.000557186
 Search for a local minimum.
 Step number   4 out of a maximum of  71
 All quantities printed in internal units (Hartrees-Bohrs-Radians)
   2   1 -0.5121207E-04  0.4937986E-03  0.1037104    
 Update second derivatives using D2CorL and points  3  4
 Trust test= 1.04D+00 RLast= 1.07D-01 DXMaxT set to 4.24D-01
 RFO step:  Lambda= 1.96514704D-05.
 Quartic linear search produced a step of  0.04637.
 Iteration  1 RMS(Cart)=  0.01961860 RMS(Int)=  0.00027882
 Iteration  2 RMS(Cart)=  0.00033158 RMS(Int)=  0.00003263
 Iteration  3 RMS(Cart)=  0.00000009 RMS(Int)=  0.00003263
 Variable       Old X    -DE/DX   Delta X   Delta X   Delta X     New X
                                 (Linear)    (Quad)   (Total)
    R1        2.51801  -0.00062   0.00006  -0.00134  -0.00128   2.51673
    R2        2.05083   0.00009   0.00002   0.00038   0.00039   2.05123
    R3        2.05295   0.00022   0.00003   0.00088   0.00091   2.05386
    R4        2.74303   0.00044   0.00011   0.00170   0.00180   2.74483
    R5        2.07475  -0.00047  -0.00002  -0.00175  -0.00176   2.07299
    R6        2.53996   0.00120  -0.00019   0.00248   0.00228   2.54224
    R7        2.07745  -0.00060  -0.00006  -0.00231  -0.00237   2.07507
    R8        2.68457  -0.00052  -0.00024  -0.00156  -0.00180   2.68277
    R9        2.08174  -0.00040  -0.00005  -0.00153  -0.00159   2.08016
   R10        2.66581  -0.00176  -0.00027  -0.00479  -0.00506   2.66075
   R11        1.88458  -0.00041  -0.00011  -0.00138  -0.00149   1.88309
   R12        2.30688   0.00037  -0.00014   0.00029   0.00015   2.30703
   R13        2.58725   0.00100  -0.00019   0.00223   0.00204   2.58929
   R14        2.66574   0.00163  -0.00023   0.00480   0.00456   2.67031
   R15        2.06845   0.00006  -0.00003   0.00018   0.00015   2.06861
   R16        2.06955  -0.00010  -0.00006  -0.00045  -0.00051   2.06904
   R17        2.06591   0.00001  -0.00002   0.00001  -0.00001   2.06591
    A1        2.13024   0.00041   0.00022   0.00362   0.00378   2.13402
    A2        2.15212   0.00042   0.00016   0.00365   0.00375   2.15587
    A3        2.00083  -0.00083  -0.00023  -0.00728  -0.00757   1.99325
    A4        2.17533   0.00019   0.00004   0.00124   0.00124   2.17657
    A5        2.09998  -0.00002   0.00011   0.00014   0.00021   2.10020
    A6        2.00778  -0.00017   0.00000  -0.00142  -0.00146   2.00632
    A7        2.14539   0.00026  -0.00010   0.00163   0.00143   2.14682
    A8        2.01452  -0.00026   0.00010  -0.00168  -0.00167   2.01284
    A9        2.12308   0.00000   0.00007   0.00047   0.00044   2.12352
   A10        2.11443  -0.00025  -0.00023  -0.00199  -0.00229   2.11214
   A11        2.14330   0.00047   0.00026   0.00410   0.00429   2.14759
   A12        2.02544  -0.00022  -0.00001  -0.00200  -0.00208   2.02335
   A13        2.12868  -0.00103  -0.00052  -0.00687  -0.00739   2.12130
   A14        2.06679   0.00027   0.00007   0.00101   0.00107   2.06787
   A15        2.08766   0.00077   0.00046   0.00588   0.00633   2.09399
   A16        2.21793   0.00026   0.00009   0.00161   0.00169   2.21962
   A17        1.90930   0.00009   0.00003   0.00044   0.00046   1.90976
   A18        2.15594  -0.00035  -0.00011  -0.00202  -0.00214   2.15381
   A19        2.04787   0.00177  -0.00041   0.00889   0.00848   2.05635
   A20        1.93501   0.00067   0.00014   0.00517   0.00530   1.94031
   A21        1.96164  -0.00033  -0.00006  -0.00341  -0.00347   1.95816
   A22        1.78377   0.00023  -0.00029   0.00234   0.00204   1.78581
   A23        1.92493  -0.00070  -0.00018  -0.00790  -0.00808   1.91685
   A24        1.92721   0.00004   0.00018   0.00181   0.00198   1.92918
   A25        1.92722   0.00018   0.00023   0.00300   0.00322   1.93044
    D1       -3.13316  -0.00004  -0.00240   0.00249   0.00009  -3.13307
    D2       -0.00700   0.00003   0.00119  -0.00152  -0.00033  -0.00734
    D3        0.00826  -0.00021   0.00193  -0.01281  -0.01089  -0.00263
    D4       -0.47206   0.00037   0.00222   0.02454   0.02676  -0.44530
    D5        2.69060  -0.00006   0.00036   0.00212   0.00248   2.69309
    D6        2.68424   0.00030  -0.00121   0.02835   0.02715   2.71139
    D7       -3.12948  -0.00030  -0.00135  -0.01551  -0.01688   3.13683
    D8        0.00567   0.00012   0.00007   0.00517   0.00527   0.01094
    D9       -0.01024   0.00015   0.00062   0.00826   0.00888  -0.00136
   D10        3.13980   0.00005   0.00040   0.00054   0.00092   3.14072
   D11        0.00854  -0.00001  -0.00011  -0.00144  -0.00156   0.00698
   D12        0.00424  -0.00034  -0.00094  -0.01883  -0.01975  -0.01551
   D13        0.02310  -0.00016  -0.00069  -0.00940  -0.01009   0.01301
   D14       -3.12404  -0.00004   0.00027  -0.00283  -0.00256  -3.12659
   D15       -3.12894  -0.00011  -0.00018  -0.00743  -0.00761  -3.13655
   D16        3.13639  -0.00004  -0.00044  -0.00157  -0.00200   3.13439
   D17       -0.01052   0.00008   0.00048   0.00473   0.00521  -0.00531
   D18        1.19218  -0.00068  -0.00094  -0.04022  -0.04116   1.15102
   D19       -0.97116  -0.00002  -0.00077  -0.03125  -0.03202  -1.00317
         Item               Value     Threshold  Converged?
 Maximum Force            0.001775     0.000450     NO 
 RMS     Force            0.000557     0.000300     NO 
 Maximum Displacement     0.078056     0.001800     NO 
 RMS     Displacement     0.019602     0.001200     NO 
 Predicted change in Energy=-7.381687D-05
 GradGradGradGradGradGradGradGradGradGradGradGradGradGradGradGradGradGrad

                          Input orientation:                          
 ---------------------------------------------------------------------
 Center     Atomic     Atomic              Coordinates (Angstroms)
 Number     Number      Type              X           Y           Z
 ---------------------------------------------------------------------
    1          6             0       -2.391500    4.322367    0.088521
    2          6             0       -3.535672    3.685591   -0.154509
    3          6             0       -3.725139    2.250503   -0.034555
    4          6             0       -2.718704    1.365924   -0.154680
    5          7             0       -2.950854   -0.028510   -0.023932
    6          6             0       -1.905987   -0.964025   -0.148607
    7          8             0       -0.726691   -0.729036   -0.359462
    8          8             0       -2.407705   -2.230147    0.001852
    9          6             0       -1.505974   -3.313290   -0.100323
   10          1             0       -0.782220   -3.303997    0.720880
   11          1             0       -0.978783   -3.323456   -1.059882
   12          1             0       -2.169653   -4.177989   -0.016776
   13          1             0       -2.296197    5.399460   -0.006442
   14          1             0       -1.481070    3.820714    0.405880
   15          1             0       -4.428756    4.246716   -0.456003
   16          1             0       -3.880309   -0.340902    0.153579
   17          1             0       -1.676092    1.664754   -0.342717
   18          1             0       -4.755355    1.927854    0.166284
 ---------------------------------------------------------------------
                    Distance matrix (angstroms):
                    1          2          3          4          5
     1  C    0.000000
     2  C    1.331794   0.000000
     3  C    2.467055   1.452503   0.000000
     4  C    2.984420   2.459328   1.345296   0.000000
     5  N    4.388126   3.762128   2.406975   1.419660   0.000000
     6  C    5.313935   4.926951   3.695336   2.467632   1.408006
     7  O    5.337505   5.236537   4.239564   2.898087   2.355890
     8  O    6.553108   6.024344   4.670458   3.612887   2.267793
     9  C    7.689154   7.287452   5.990393   4.834120   3.589331
    10  H    7.819916   7.563210   6.331187   5.130764   3.998317
    11  H    7.859594   7.515593   6.297840   5.083011   3.977302
    12  H    8.503903   7.982536   6.614028   5.572742   4.222382
    13  H    1.085462   2.120275   3.458120   4.058312   5.467333
    14  H    1.086856   2.133936   2.774057   2.805701   4.142647
    15  H    2.110128   1.096977   2.158139   3.363635   4.544055
    16  H    4.895596   4.052942   2.602854   2.087487   0.996486
    17  H    2.785801   2.752680   2.153290   1.100771   2.143312
    18  H    3.365642   2.163371   1.098082   2.136991   2.668288
                    6          7          8          9         10
     6  C    0.000000
     7  O    1.220827   0.000000
     8  O    1.370191   2.282475   0.000000
     9  C    2.383566   2.711605   1.413067   0.000000
    10  H    2.737577   2.792964   2.076622   1.094660   0.000000
    11  H    2.693890   2.699102   2.089120   1.094891   1.791683
    12  H    3.227455   3.754311   1.962423   1.093231   1.798046
    13  H    6.377022   6.336121   7.630426   8.749015   8.864044
    14  H    4.835467   4.674940   6.134722   7.151984   7.165830
    15  H    5.797472   6.202638   6.800297   8.113129   8.467322
    16  H    2.092258   3.218565   2.400173   3.812745   4.324340
    17  H    2.645942   2.575242   3.977970   4.986844   5.159334
    18  H    4.071980   4.854442   4.777810   6.172450   6.592848
                   11         12         13         14         15
    11  H    0.000000
    12  H    1.799018   0.000000
    13  H    8.884513   9.578290   0.000000
    14  H    7.310261   8.039405   1.823973   0.000000
    15  H    8.341133   8.733392   2.465508   3.100512   0.000000
    16  H    4.334394   4.204594   5.957077   4.810307   4.660324
    17  H    5.087515   5.872605   3.800742   2.290544   3.775781
    18  H    6.583482   6.633302   4.257856   3.789626   2.423021
                   16         17         18
    16  H    0.000000
    17  H    3.021181   0.000000
    18  H    2.431691   3.132118   0.000000
 Symmetry turned off by external request.
 Stoichiometry    C6H9NO2
 Framework group  C1[X(C6H9NO2)]
 Deg. of freedom    48
 Full point group                 C1
 Rotational constants (GHZ):      6.2468917      0.6036914      0.5547762
 Standard basis: VSTO-3G (5D, 7F)
 Integral buffers will be    131072 words long.
 Raffenetti 1 integral format.
 Two-electron integral symmetry is turned off.
    45 basis functions,   135 primitive gaussians,    45 cartesian basis functions
    25 alpha electrons       25 beta electrons
       nuclear repulsion energy       223.9086075782 Hartrees.
 NAtoms=   18 NActive=   18 NUniq=   18 SFac= 7.50D-01 NAtFMM=   80 NAOKFM=F Big=F
 Initial guess read from the read-write file:
 RHF-PM3 calculation of energy and first derivatives.
 MO and density RWFs will be updated without deorthogonalization.
 Closed-shell calculation:      25 occupied levels.
 NNHCO=    0.
 References:
  H: (PM3): J. J. P. STEWART, J. COMP. CHEM.     10, 209 (1989).
  C: (PM3): J. J. P. STEWART, J. COMP. CHEM.     10, 209 (1989).
  N: (PM3): J. J. P. STEWART, J. COMP. CHEM.     10, 209 (1989).
  O: (PM3): J. J. P. STEWART, J. COMP. CHEM.     10, 209 (1989).
 Ext34=T Pulay=F Camp-King=F BShift= 0.00D+00
 It=  1 PL= 0.989D+00 DiagD=T ESCF=      5.720672 Diff= 0.138D+01 RMSDP= 0.222D+00.
 It=  2 PL= 0.439D-01 DiagD=T ESCF=     -1.849736 Diff=-0.757D+01 RMSDP= 0.513D-02.
 It=  3 PL= 0.207D-01 DiagD=F ESCF=     -2.312019 Diff=-0.462D+00 RMSDP= 0.265D-02.
 It=  4 PL= 0.475D-02 DiagD=F ESCF=     -2.393982 Diff=-0.820D-01 RMSDP= 0.327D-03.
 It=  5 PL= 0.206D-02 DiagD=F ESCF=     -2.368815 Diff= 0.252D-01 RMSDP= 0.157D-03.
 It=  6 PL= 0.966D-03 DiagD=F ESCF=     -2.369158 Diff=-0.343D-03 RMSDP= 0.179D-03.
 It=  7 PL= 0.107D-03 DiagD=F ESCF=     -2.369456 Diff=-0.298D-03 RMSDP= 0.118D-04.
 It=  8 PL= 0.625D-04 DiagD=F ESCF=     -2.369300 Diff= 0.156D-03 RMSDP= 0.592D-05.
 It=  9 PL= 0.355D-04 DiagD=F ESCF=     -2.369300 Diff=-0.468D-06 RMSDP= 0.736D-05.
[...]
   A21        1.94875   0.00000   0.00002   0.00000   0.00002   1.94877
   A22        1.78433   0.00000   0.00000  -0.00001  -0.00001   1.78432
   A23        1.91660   0.00000   0.00001   0.00000   0.00001   1.91661
   A24        1.93067   0.00000   0.00000   0.00002   0.00002   1.93069
   A25        1.93047   0.00000   0.00000   0.00001   0.00001   1.93048
    D1        3.14041   0.00000   0.00000  -0.00001  -0.00001   3.14040
    D2       -0.00134   0.00000  -0.00002   0.00004   0.00002  -0.00132
    D3       -0.00107   0.00000   0.00000  -0.00009  -0.00008  -0.00115
    D4       -0.00525   0.00000   0.00005   0.00009   0.00014  -0.00511
    D5        3.13449   0.00000   0.00002   0.00008   0.00010   3.13459
    D6        3.13650   0.00000   0.00007   0.00004   0.00011   3.13661
    D7        3.07769   0.00000  -0.00002  -0.00003  -0.00004   3.07765
    D8       -0.00133   0.00000  -0.00002  -0.00003  -0.00004  -0.00138
    D9       -0.06194   0.00000   0.00001  -0.00002   0.00000  -0.06194
   D10        2.79359   0.00000   0.00005  -0.00014  -0.00009   2.79350
   D11        0.27423   0.00000  -0.00001  -0.00008  -0.00009   0.27413
   D12       -0.40810   0.00000   0.00005  -0.00014  -0.00009  -0.40819
   D13        0.37307   0.00000   0.00006   0.00021   0.00026   0.37333
   D14       -2.82823   0.00000   0.00006   0.00017   0.00022  -2.82801
   D15        2.88528   0.00000   0.00011   0.00015   0.00026   2.88554
   D16       -3.03475   0.00000   0.00006  -0.00002   0.00004  -3.03470
   D17        0.05034   0.00000   0.00006  -0.00005   0.00000   0.05035
   D18        1.06621   0.00000   0.00017   0.00003   0.00021   1.06641
   D19       -1.08787   0.00000   0.00017   0.00004   0.00021  -1.08765
         Item               Value     Threshold  Converged?
 Maximum Force            0.000021     0.000450     YES
 RMS     Force            0.000005     0.000300     YES
 Maximum Displacement     0.000864     0.001800     YES
 RMS     Displacement     0.000215     0.001200     YES
 Predicted change in Energy=-3.636120D-09
 Optimization completed.
    -- Stationary point found.
                           ----------------------------
                           !   Optimized Parameters   !
                           ! (Angstroms and Degrees)  !
 --------------------------                            --------------------------
 ! Name  Definition              Value          Derivative Info.                !
 --------------------------------------------------------------------------------
 ! R1    R(1,2)                  1.3331         -DE/DX =    0.0                 !
 ! R2    R(1,13)                 1.0846         -DE/DX =    0.0                 !
 ! R3    R(1,14)                 1.0909         -DE/DX =    0.0                 !
 ! R4    R(2,3)                  1.4527         -DE/DX =    0.0                 !
 ! R5    R(2,15)                 1.0962         -DE/DX =    0.0                 !
 ! R6    R(3,4)                  1.3453         -DE/DX =    0.0                 !
 ! R7    R(3,18)                 1.0975         -DE/DX =    0.0                 !
 ! R8    R(4,5)                  1.4262         -DE/DX =    0.0                 !
 ! R9    R(4,17)                 1.1058         -DE/DX =    0.0                 !
 ! R10   R(5,6)                  1.4235         -DE/DX =    0.0                 !
 ! R11   R(5,16)                 0.9979         -DE/DX =    0.0                 !
 ! R12   R(6,7)                  1.2193         -DE/DX =    0.0                 !
 ! R13   R(6,8)                  1.3684         -DE/DX =    0.0                 !
 ! R14   R(8,9)                  1.4122         -DE/DX =    0.0                 !
 ! R15   R(9,10)                 1.095          -DE/DX =    0.0                 !
 ! R16   R(9,11)                 1.095          -DE/DX =    0.0                 !
 ! R17   R(9,12)                 1.0929         -DE/DX =    0.0                 !
 ! A1    A(2,1,13)             123.1498         -DE/DX =    0.0                 !
 ! A2    A(2,1,14)             121.8309         -DE/DX =    0.0                 !
 ! A3    A(13,1,14)            115.0194         -DE/DX =    0.0                 !
 ! A4    A(1,2,3)              123.3178         -DE/DX =    0.0                 !
 ! A5    A(1,2,15)             120.8382         -DE/DX =    0.0                 !
 ! A6    A(3,2,15)             115.844          -DE/DX =    0.0                 !
 ! A7    A(2,3,4)              121.696          -DE/DX =    0.0                 !
 ! A8    A(2,3,18)             116.2103         -DE/DX =    0.0                 !
 ! A9    A(4,3,18)             122.0936         -DE/DX =    0.0                 !
 ! A10   A(3,4,5)              121.9146         -DE/DX =    0.0                 !
 ! A11   A(3,4,17)             121.0762         -DE/DX =    0.0                 !
 ! A12   A(5,4,17)             116.9177         -DE/DX =    0.0                 !
 ! A13   A(4,5,6)              118.7583         -DE/DX =    0.0                 !
 ! A14   A(4,5,16)             115.0373         -DE/DX =    0.0                 !
 ! A15   A(6,5,16)             116.2191         -DE/DX =    0.0                 !
 ! A16   A(5,6,7)              127.2901         -DE/DX =    0.0                 !
 ! A17   A(5,6,8)              109.824          -DE/DX =    0.0                 !
 ! A18   A(7,6,8)              122.7949         -DE/DX =    0.0                 !
 ! A19   A(6,8,9)              117.7551         -DE/DX =    0.0                 !
 ! A20   A(8,9,10)             111.7234         -DE/DX =    0.0                 !
 ! A21   A(8,9,11)             111.6554         -DE/DX =    0.0                 !
 ! A22   A(8,9,12)             102.2347         -DE/DX =    0.0                 !
 ! A23   A(10,9,11)            109.813          -DE/DX =    0.0                 !
 ! A24   A(10,9,12)            110.6192         -DE/DX =    0.0                 !
 ! A25   A(11,9,12)            110.6081         -DE/DX =    0.0                 !
 ! D1    D(13,1,2,3)           179.9323         -DE/DX =    0.0                 !
 ! D2    D(13,1,2,15)           -0.0769         -DE/DX =    0.0                 !
 ! D3    D(14,1,2,3)            -0.0613         -DE/DX =    0.0                 !
 ! D4    D(1,2,3,4)             -0.3006         -DE/DX =    0.0                 !
 ! D5    D(1,2,3,18)           179.5931         -DE/DX =    0.0                 !
 ! D6    D(15,2,3,4)           179.7082         -DE/DX =    0.0                 !
 ! D7    D(2,3,4,5)            176.3386         -DE/DX =    0.0                 !
 ! D8    D(2,3,4,17)            -0.0764         -DE/DX =    0.0                 !
 ! D9    D(18,3,4,5)            -3.5489         -DE/DX =    0.0                 !
 ! D10   D(3,4,5,6)            160.0609         -DE/DX =    0.0                 !
 ! D11   D(3,4,5,16)            15.712          -DE/DX =    0.0                 !
 ! D12   D(17,4,5,6)           -23.3826         -DE/DX =    0.0                 !
 ! D13   D(4,5,6,7)             21.3752         -DE/DX =    0.0                 !
 ! D14   D(4,5,6,8)           -162.0456         -DE/DX =    0.0                 !
 ! D15   D(16,5,6,7)           165.3143         -DE/DX =    0.0                 !
 ! D16   D(5,6,8,9)           -173.8781         -DE/DX =    0.0                 !
 ! D17   D(7,6,8,9)              2.8845         -DE/DX =    0.0                 !
 ! D18   D(6,8,9,10)            61.0892         -DE/DX =    0.0                 !
 ! D19   D(6,8,9,11)           -62.3301         -DE/DX =    0.0                 !
 --------------------------------------------------------------------------------
 GradGradGradGradGradGradGradGradGradGradGradGradGradGradGradGradGradGrad

                          Input orientation:                          
 ---------------------------------------------------------------------
 Center     Atomic     Atomic              Coordinates (Angstroms)
 Number     Number      Type              X           Y           Z
 ---------------------------------------------------------------------
    1          6             0       -2.343425    4.221044   -0.147082
    2          6             0       -3.555275    3.665443   -0.151086
    3          6             0       -3.778383    2.236460   -0.014894
    4          6             0       -2.757055    1.371296    0.120058
    5          7             0       -2.972598   -0.022641    0.330796
    6          6             0       -1.914969   -0.930547    0.041925
    7          8             0       -0.724044   -0.678849   -0.029095
    8          8             0       -2.413103   -2.199092   -0.081802
    9          6             0       -1.489592   -3.255897   -0.238340
   10          1             0       -0.817719   -3.337818    0.622383
   11          1             0       -0.904012   -3.148028   -1.157354
   12          1             0       -2.144540   -4.128616   -0.299755
   13          1             0       -2.179939    5.288270   -0.250035
   14          1             0       -1.436995    3.623781   -0.038553
   15          1             0       -4.455516    4.281412   -0.260081
   16          1             0       -3.895907   -0.342558    0.128372
   17          1             0       -1.708727    1.722922    0.130373
   18          1             0       -4.824862    1.905950   -0.026719
 ---------------------------------------------------------------------
                    Distance matrix (angstroms):
                    1          2          3          4          5
     1  C    0.000000
     2  C    1.333150   0.000000
     3  C    2.452580   1.452693   0.000000
     4  C    2.891974   2.444132   1.345300   0.000000
     5  N    4.316605   3.764795   2.423288   1.426159   0.000000
     6  C    5.172832   4.883747   3.674980   2.452284   1.423489
     7  O    5.161905   5.186870   4.222347   2.891103   2.369837
     8  O    6.420845   5.975125   4.641399   3.592592   2.284778
     9  C    7.526088   7.223546   5.954367   4.811012   3.602384
    10  H    7.749596   7.558976   6.343834   5.117530   3.964710
    11  H    7.576000   7.380051   6.209665   5.048747   4.032578
    12  H    8.353423   7.922097   6.577596   5.549815   4.235836
    13  H    1.084573   2.129532   3.453094   3.976520   5.401059
    14  H    1.090925   2.121677   2.721639   2.615608   3.973775
    15  H    2.115973   1.096235   2.168053   3.390877   4.590539
    16  H    4.828305   4.032145   2.585666   2.057753   0.997909
    17  H    2.592380   2.694874   2.137359   1.105775   2.164377
    18  H    3.395831   2.173276   1.097494   2.140846   2.697807
                    6          7          8          9         10
     6  C    0.000000
     7  O    1.219302   0.000000
     8  O    1.368448   2.273067   0.000000
     9  C    2.380493   2.696484   1.412167   0.000000
    10  H    2.708475   2.739217   2.082744   1.094973   0.000000
    11  H    2.716160   2.720699   2.081981   1.095046   1.791906
    12  H    3.224452   3.740582   1.960278   1.092871   1.798932
    13  H    6.231303   6.146133   7.492880   8.572019   8.776454
    14  H    4.580048   4.361308   5.904278   6.882779   7.020270
    15  H    5.806041   6.211395   6.797070   8.099890   8.489109
    16  H    2.068169   3.193525   2.385288   3.796364   4.323294
    17  H    2.662941   2.600679   3.990408   4.997260   5.162078
    18  H    4.064223   4.847463   4.761406   6.149267   6.631413
                   11         12         13         14         15
    11  H    0.000000
    12  H    1.798871   0.000000
    13  H    8.580346   9.417083   0.000000
    14  H    6.884271   7.788998   1.834997   0.000000
    15  H    8.283409   8.721854   2.488396   3.097261   0.000000
    16  H    4.298278   4.193425   5.898640   4.669685   4.673880
    17  H    5.102153   5.883488   3.616415   1.927599   3.774014
    18  H    6.495698   6.608681   4.299484   3.798516   2.415303
                   16         17         18
    16  H    0.000000
    17  H    3.008317   0.000000
    18  H    2.437786   3.125456   0.000000
 Symmetry turned off by external request.
 Stoichiometry    C6H9NO2
 Framework group  C1[X(C6H9NO2)]
 Deg. of freedom    48
 Full point group                 C1
 Rotational constants (GHZ):      5.9165636      0.6214741      0.5684271

 **********************************************************************

            Population analysis using the SCF density.

 **********************************************************************

 Alpha  occ. eigenvalues --   -1.46903  -1.36137  -1.31434  -1.16927  -1.03645
 Alpha  occ. eigenvalues --   -0.96248  -0.83759  -0.76765  -0.72073  -0.67417
 Alpha  occ. eigenvalues --   -0.65141  -0.62536  -0.61545  -0.59001  -0.55709
 Alpha  occ. eigenvalues --   -0.54606  -0.52516  -0.49213  -0.48425  -0.46341
 Alpha  occ. eigenvalues --   -0.45466  -0.43039  -0.42229  -0.40207  -0.32459
 Alpha virt. eigenvalues --   -0.00089   0.03382   0.04567   0.07390   0.10279
 Alpha virt. eigenvalues --    0.11801   0.12172   0.12836   0.13678   0.14291
 Alpha virt. eigenvalues --    0.14588   0.14883   0.15325   0.16193   0.17568
 Alpha virt. eigenvalues --    0.19307   0.20302   0.21123   0.21987   0.26457
          Condensed to atoms (all electrons):
              1          2          3          4          5          6
     1  C    4.163127   0.000000   0.000000   0.000000   0.000000   0.000000
     2  C    0.000000   4.091023   0.000000   0.000000   0.000000   0.000000
     3  C    0.000000   0.000000   4.167173   0.000000   0.000000   0.000000
     4  C    0.000000   0.000000   0.000000   4.145519   0.000000   0.000000
     5  N    0.000000   0.000000   0.000000   0.000000   4.907608   0.000000
     6  C    0.000000   0.000000   0.000000   0.000000   0.000000   3.664348
     7  O    0.000000   0.000000   0.000000   0.000000   0.000000   0.000000
     8  O    0.000000   0.000000   0.000000   0.000000   0.000000   0.000000
     9  C    0.000000   0.000000   0.000000   0.000000   0.000000   0.000000
    10  H    0.000000   0.000000   0.000000   0.000000   0.000000   0.000000
    11  H    0.000000   0.000000   0.000000   0.000000   0.000000   0.000000
    12  H    0.000000   0.000000   0.000000   0.000000   0.000000   0.000000
    13  H    0.000000   0.000000   0.000000   0.000000   0.000000   0.000000
    14  H    0.000000   0.000000   0.000000   0.000000   0.000000   0.000000
    15  H    0.000000   0.000000   0.000000   0.000000   0.000000   0.000000
    16  H    0.000000   0.000000   0.000000   0.000000   0.000000   0.000000
    17  H    0.000000   0.000000   0.000000   0.000000   0.000000   0.000000
    18  H    0.000000   0.000000   0.000000   0.000000   0.000000   0.000000
              7          8          9         10         11         12
     1  C    0.000000   0.000000   0.000000   0.000000   0.000000   0.000000
     2  C    0.000000   0.000000   0.000000   0.000000   0.000000   0.000000
     3  C    0.000000   0.000000   0.000000   0.000000   0.000000   0.000000
     4  C    0.000000   0.000000   0.000000   0.000000   0.000000   0.000000
     5  N    0.000000   0.000000   0.000000   0.000000   0.000000   0.000000
     6  C    0.000000   0.000000   0.000000   0.000000   0.000000   0.000000
     7  O    6.397111   0.000000   0.000000   0.000000   0.000000   0.000000
     8  O    0.000000   6.270541   0.000000   0.000000   0.000000   0.000000
     9  C    0.000000   0.000000   3.913520   0.000000   0.000000   0.000000
    10  H    0.000000   0.000000   0.000000   0.961711   0.000000   0.000000
    11  H    0.000000   0.000000   0.000000   0.000000   0.962618   0.000000
    12  H    0.000000   0.000000   0.000000   0.000000   0.000000   0.954731
    13  H    0.000000   0.000000   0.000000   0.000000   0.000000   0.000000
    14  H    0.000000   0.000000   0.000000   0.000000   0.000000   0.000000
    15  H    0.000000   0.000000   0.000000   0.000000   0.000000   0.000000
    16  H    0.000000   0.000000   0.000000   0.000000   0.000000   0.000000
    17  H    0.000000   0.000000   0.000000   0.000000   0.000000   0.000000
    18  H    0.000000   0.000000   0.000000   0.000000   0.000000   0.000000
             13         14         15         16         17         18
     1  C    0.000000   0.000000   0.000000   0.000000   0.000000   0.000000
     2  C    0.000000   0.000000   0.000000   0.000000   0.000000   0.000000
     3  C    0.000000   0.000000   0.000000   0.000000   0.000000   0.000000
     4  C    0.000000   0.000000   0.000000   0.000000   0.000000   0.000000
     5  N    0.000000   0.000000   0.000000   0.000000   0.000000   0.000000
     6  C    0.000000   0.000000   0.000000   0.000000   0.000000   0.000000
     7  O    0.000000   0.000000   0.000000   0.000000   0.000000   0.000000
     8  O    0.000000   0.000000   0.000000   0.000000   0.000000   0.000000
     9  C    0.000000   0.000000   0.000000   0.000000   0.000000   0.000000
    10  H    0.000000   0.000000   0.000000   0.000000   0.000000   0.000000
    11  H    0.000000   0.000000   0.000000   0.000000   0.000000   0.000000
    12  H    0.000000   0.000000   0.000000   0.000000   0.000000   0.000000
    13  H    0.915588   0.000000   0.000000   0.000000   0.000000   0.000000
    14  H    0.000000   0.914380   0.000000   0.000000   0.000000   0.000000
    15  H    0.000000   0.000000   0.903325   0.000000   0.000000   0.000000
    16  H    0.000000   0.000000   0.000000   0.921458   0.000000   0.000000
    17  H    0.000000   0.000000   0.000000   0.000000   0.852650   0.000000
    18  H    0.000000   0.000000   0.000000   0.000000   0.000000   0.893569
 Mulliken atomic charges:
              1
     1  C   -0.163127
     2  C   -0.091023
     3  C   -0.167173
     4  C   -0.145519
     5  N    0.092392
     6  C    0.335652
     7  O   -0.397111
     8  O   -0.270541
     9  C    0.086480
    10  H    0.038289
    11  H    0.037382
    12  H    0.045269
    13  H    0.084412
    14  H    0.085620
    15  H    0.096675
    16  H    0.078542
    17  H    0.147350
    18  H    0.106431
 Sum of Mulliken charges=   0.00000
 Atomic charges with hydrogens summed into heavy atoms:
              1
     1  C    0.006905
     2  C    0.005652
     3  C   -0.060741
     4  C    0.001831
     5  N    0.170934
     6  C    0.335652
     7  O   -0.397111
     8  O   -0.270541
     9  C    0.207420
    10  H    0.000000
    11  H    0.000000
    12  H    0.000000
    13  H    0.000000
    14  H    0.000000
    15  H    0.000000
    16  H    0.000000
    17  H    0.000000
    18  H    0.000000
 Sum of Mulliken charges=   0.00000
 1\1\GINC-WOLF01\FOpt\RPM3\ZDO\C6H9N1O2\XDANEK7\16-Dec-2012\0\\# PM3 Op
 t NoSymm\\reaktant 1\\0,1\C,-2.3434250581,4.2210435151,-0.1470823686\C
 ,-3.5552750343,3.665442674,-0.1510860637\C,-3.7783829841,2.2364599072,
 -0.0148939313\C,-2.7570549549,1.3712962218,0.120058004\N,-2.9725981371
 ,-0.0226405392,0.3307957474\C,-1.9149685585,-0.9305474489,0.0419250501
 \O,-0.7240443079,-0.6788492235,-0.0290950957\O,-2.4131026131,-2.199091
 6886,-0.08180244\C,-1.4895915756,-3.2558974934,-0.238339506\H,-0.81771
 88204,-3.3378177749,0.6223826537\H,-0.9040120891,-3.1480284815,-1.1573
 536621\H,-2.1445404991,-4.1286156506,-0.2997552876\H,-2.1799393461,5.2
 882695229,-0.2500348067\H,-1.4369945661,3.6237805346,-0.0385534544\H,-
 4.4555160894,4.2814117006,-0.2600807011\H,-3.8959071471,-0.3425578985,
 0.1283722054\H,-1.7087265419,1.7229216411,0.1303729694\H,-4.8248616771
 ,1.9059504819,-0.0267193124\\Version=EM64L-G03RevE.01\HF=-0.0884987\RM
 SD=0.000e+00\RMSF=5.849e-06\Thermal=0.\Dipole=-0.6973483,-0.3511873,-0
 .211547\PG=C01 [X(C6H9N1O2)]\\@


 Discoveries are often made by not following instructions,
 by going off the main road, by trying the untried.
 -- Frank Tyger
 Job cpu time:  0 days  0 hours  0 minutes  8.8 seconds.
 File lengths (MBytes):  RWF=     13 Int=      0 D2E=      0 Chk=      6 Scr=      1
 Normal termination of Gaussian 03 at Sun Dec 16 15:07:53 2012.
