 Entering Gaussian System, Link 0=g03
 Input=reaktant1.com
 Output=reaktant1.log
 Initial command:
 /software/ncbr/softrepo/secret/gaussian/03.E1/x86_64/node/l1.exe /scratch/xdanek7/QM/03_F_analyza/reaktant1/Gau-13165.inp -scrdir=/scratch/xdanek7/QM/03_F_analyza/reaktant1/
 Entering Link 1 = /software/ncbr/softrepo/secret/gaussian/03.E1/x86_64/node/l1.exe PID=     13167.
  
 Copyright (c) 1988,1990,1992,1993,1995,1998,2003,2004,2007, Gaussian, Inc.
                  All Rights Reserved.
  
 This is the Gaussian(R) 03 program.  It is based on the
 the Gaussian(R) 98 system (copyright 1998, Gaussian, Inc.),
 the Gaussian(R) 94 system (copyright 1995, Gaussian, Inc.),
 the Gaussian 92(TM) system (copyright 1992, Gaussian, Inc.),
 the Gaussian 90(TM) system (copyright 1990, Gaussian, Inc.),
 the Gaussian 88(TM) system (copyright 1988, Gaussian, Inc.),
 the Gaussian 86(TM) system (copyright 1986, Carnegie Mellon
 University), and the Gaussian 82(TM) system (copyright 1983,
 Carnegie Mellon University). Gaussian is a federally registered
 trademark of Gaussian, Inc.
  
 This software contains proprietary and confidential information,
 including trade secrets, belonging to Gaussian, Inc.
  
 This software is provided under written license and may be
 used, copied, transmitted, or stored only in accord with that
 written license.
  
 The following legend is applicable only to US Government
 contracts under FAR:
  
                    RESTRICTED RIGHTS LEGEND
  
 Use, reproduction and disclosure by the US Government is
 subject to restrictions as set forth in subparagraphs (a)
 and (c) of the Commercial Computer Software - Restricted
 Rights clause in FAR 52.227-19.
  
 Gaussian, Inc.
 340 Quinnipiac St., Bldg. 40, Wallingford CT 06492
  
  
 ---------------------------------------------------------------
 Warning -- This program may not be used in any manner that
 competes with the business of Gaussian, Inc. or will provide
 assistance to any competitor of Gaussian, Inc.  The licensee
 of this program is prohibited from giving any competitor of
 Gaussian, Inc. access to this program.  By using this program,
 the user acknowledges that Gaussian, Inc. is engaged in the
 business of creating and licensing software in the field of
 computational chemistry and represents and warrants to the
 licensee that it is not a competitor of Gaussian, Inc. and that
 it will not use this program in any manner prohibited above.
 ---------------------------------------------------------------
  

 Cite this work as:
 Gaussian 03, Revision E.01,
 M. J. Frisch, G. W. Trucks, H. B. Schlegel, G. E. Scuseria, 
 M. A. Robb, J. R. Cheeseman, J. A. Montgomery, Jr., T. Vreven, 
 K. N. Kudin, J. C. Burant, J. M. Millam, S. S. Iyengar, J. Tomasi, 
 V. Barone, B. Mennucci, M. Cossi, G. Scalmani, N. Rega, 
 G. A. Petersson, H. Nakatsuji, M. Hada, M. Ehara, K. Toyota, 
 R. Fukuda, J. Hasegawa, M. Ishida, T. Nakajima, Y. Honda, O. Kitao, 
 H. Nakai, M. Klene, X. Li, J. E. Knox, H. P. Hratchian, J. B. Cross, 
 V. Bakken, C. Adamo, J. Jaramillo, R. Gomperts, R. E. Stratmann, 
 O. Yazyev, A. J. Austin, R. Cammi, C. Pomelli, J. W. Ochterski, 
 P. Y. Ayala, K. Morokuma, G. A. Voth, P. Salvador, J. J. Dannenberg, 
 V. G. Zakrzewski, S. Dapprich, A. D. Daniels, M. C. Strain, 
 O. Farkas, D. K. Malick, A. D. Rabuck, K. Raghavachari, 
 J. B. Foresman, J. V. Ortiz, Q. Cui, A. G. Baboul, S. Clifford, 
 J. Cioslowski, B. B. Stefanov, G. Liu, A. Liashenko, P. Piskorz, 
 I. Komaromi, R. L. Martin, D. J. Fox, T. Keith, M. A. Al-Laham, 
 C. Y. Peng, A. Nanayakkara, M. Challacombe, P. M. W. Gill, 
 B. Johnson, W. Chen, M. W. Wong, C. Gonzalez, and J. A. Pople, 
 Gaussian, Inc., Wallingford CT, 2004.
 
 ******************************************
 Gaussian 03:  EM64L-G03RevE.01 11-Sep-2007
                16-Dec-2012 
 ******************************************
 -----------------
 # PM3 Freq NoSymm
 -----------------
 1/10=4,30=1,38=1/1,3;
 2/15=1,17=6,18=5,40=1/2;
 3/5=2,11=9,12=1,16=1,25=1,30=1/1;
 4/5=3,11=1,20=7,22=2,24=3,35=1/1,2;
 6/7=2,8=2,9=2,10=2/1;
 7/8=1,25=1,30=1/16;
 1/10=4,30=1/3;
 99//99;
 ---------
 reaktant1
 ---------
 Symbolic Z-matrix:
 Charge =  0 Multiplicity = 1
 C                    -2.34343   4.22104  -0.14708 
 C                    -3.55528   3.66544  -0.15109 
 C                    -3.77838   2.23646  -0.01489 
 C                    -2.75706   1.3713    0.12006 
 N                    -2.9726   -0.02264   0.3308 
 C                    -1.91497  -0.93055   0.04193 
 O                    -0.72404  -0.67885  -0.0291 
 O                    -2.4131   -2.19909  -0.0818 
 C                    -1.48959  -3.2559   -0.23834 
 H                    -0.81772  -3.33782   0.62238 
 H                    -0.90401  -3.14803  -1.15735 
 H                    -2.14454  -4.12862  -0.29976 
 H                    -2.17994   5.28827  -0.25004 
 H                    -1.437     3.62378  -0.03855 
 H                    -4.45552   4.28141  -0.26008 
 H                    -3.89591  -0.34256   0.12837 
 H                    -1.70873   1.72292   0.13037 
 H                    -4.82486   1.90595  -0.02672 
 

 GradGradGradGradGradGradGradGradGradGradGradGradGradGradGradGradGradGrad
 Berny optimization.
 Initialization pass.
 Trust Radius=3.00D-01 FncErr=1.00D-07 GrdErr=1.00D-07
 Number of steps in this run=   2 maximum allowed number of steps=   2.
 GradGradGradGradGradGradGradGradGradGradGradGradGradGradGradGradGradGrad

                          Input orientation:                          
 ---------------------------------------------------------------------
 Center     Atomic     Atomic              Coordinates (Angstroms)
 Number     Number      Type              X           Y           Z
 ---------------------------------------------------------------------
    1          6             0       -2.343425    4.221044   -0.147082
    2          6             0       -3.555275    3.665443   -0.151086
    3          6             0       -3.778383    2.236460   -0.014894
    4          6             0       -2.757055    1.371296    0.120058
    5          7             0       -2.972598   -0.022641    0.330796
    6          6             0       -1.914969   -0.930547    0.041925
    7          8             0       -0.724044   -0.678849   -0.029095
    8          8             0       -2.413103   -2.199092   -0.081802
    9          6             0       -1.489592   -3.255897   -0.238340
   10          1             0       -0.817719   -3.337818    0.622383
   11          1             0       -0.904012   -3.148028   -1.157354
   12          1             0       -2.144540   -4.128616   -0.299755
   13          1             0       -2.179939    5.288270   -0.250035
   14          1             0       -1.436995    3.623781   -0.038553
   15          1             0       -4.455516    4.281412   -0.260081
   16          1             0       -3.895907   -0.342558    0.128372
   17          1             0       -1.708727    1.722922    0.130373
   18          1             0       -4.824862    1.905950   -0.026719
 ---------------------------------------------------------------------
                    Distance matrix (angstroms):
                    1          2          3          4          5
     1  C    0.000000
     2  C    1.333150   0.000000
     3  C    2.452581   1.452693   0.000000
     4  C    2.891975   2.444133   1.345300   0.000000
     5  N    4.316606   3.764796   2.423289   1.426159   0.000000
     6  C    5.172832   4.883747   3.674979   2.452284   1.423488
     7  O    5.161905   5.186870   4.222347   2.891103   2.369837
     8  O    6.420846   5.975126   4.641399   3.592593   2.284778
     9  C    7.526088   7.223545   5.954366   4.811011   3.602384
    10  H    7.749597   7.558977   6.343834   5.117530   3.964710
    11  H    7.576000   7.380051   6.209665   5.048746   4.032578
    12  H    8.353424   7.922098   6.577597   5.549815   4.235836
    13  H    1.084573   2.129532   3.453094   3.976521   5.401060
    14  H    1.090925   2.121676   2.721639   2.615608   3.973775
    15  H    2.115973   1.096235   2.168053   3.390878   4.590540
    16  H    4.828306   4.032146   2.585666   2.057753   0.997909
    17  H    2.592380   2.694874   2.137358   1.105775   2.164377
    18  H    3.395832   2.173277   1.097495   2.140847   2.697807
                    6          7          8          9         10
     6  C    0.000000
     7  O    1.219302   0.000000
     8  O    1.368449   2.273068   0.000000
     9  C    2.380493   2.696484   1.412166   0.000000
    10  H    2.708476   2.739218   2.082744   1.094974   0.000000
    11  H    2.716160   2.720699   2.081982   1.095046   1.791907
    12  H    3.224452   3.740583   1.960279   1.092871   1.798931
    13  H    6.231303   6.146133   7.492880   8.572019   8.776454
    14  H    4.580048   4.361309   5.904279   6.882779   7.020271
    15  H    5.806040   6.211395   6.797070   8.099889   8.489109
    16  H    2.068168   3.193525   2.385288   3.796363   4.323294
    17  H    2.662941   2.600680   3.990408   4.997260   5.162079
    18  H    4.064222   4.847463   4.761406   6.149266   6.631412
                   11         12         13         14         15
    11  H    0.000000
    12  H    1.798871   0.000000
    13  H    8.580346   9.417084   0.000000
    14  H    6.884271   7.788999   1.834997   0.000000
    15  H    8.283409   8.721855   2.488396   3.097260   0.000000
    16  H    4.298277   4.193425   5.898641   4.669685   4.673880
    17  H    5.102153   5.883489   3.616415   1.927599   3.774013
    18  H    6.495698   6.608681   4.299486   3.798516   2.415304
                   16         17         18
    16  H    0.000000
    17  H    3.008316   0.000000
    18  H    2.437786   3.125456   0.000000
 Symmetry turned off by external request.
 Stoichiometry    C6H9NO2
 Framework group  C1[X(C6H9NO2)]
 Deg. of freedom    48
 Full point group                 C1
 Rotational constants (GHZ):      5.9165616      0.6214741      0.5684271
 Standard basis: VSTO-3G (5D, 7F)
 Integral buffers will be    131072 words long.
 Raffenetti 1 integral format.
 Two-electron integral symmetry is turned off.
    45 basis functions,   135 primitive gaussians,    45 cartesian basis functions
    25 alpha electrons       25 beta electrons
       nuclear repulsion energy       224.7121536156 Hartrees.
 NAtoms=   18 NActive=   18 NUniq=   18 SFac= 7.50D-01 NAtFMM=   80 NAOKFM=F Big=F
 Simple Huckel Guess.
 RHF-PM3 calculation of energy, first and second derivatives.
 MO and density RWFs will be updated without deorthogonalization.
 Numerical evaluation of force-constants.
 Step-Size= 0.018897 bohr.
 Closed-shell calculation:      25 occupied levels.
 NNHCO=    0.
 References:
  H: (PM3): J. J. P. STEWART, J. COMP. CHEM.     10, 209 (1989).
  C: (PM3): J. J. P. STEWART, J. COMP. CHEM.     10, 209 (1989).
  N: (PM3): J. J. P. STEWART, J. COMP. CHEM.     10, 209 (1989).
  O: (PM3): J. J. P. STEWART, J. COMP. CHEM.     10, 209 (1989).
 Ext34=T Pulay=F Camp-King=F BShift= 0.00D+00
 It=  1 PL= 0.103D+01 DiagD=T ESCF=     11.371372 Diff= 0.704D+01 RMSDP= 0.222D+00.
 It=  2 PL= 0.107D+00 DiagD=T ESCF=     -1.188637 Diff=-0.126D+02 RMSDP= 0.842D-02.
 It=  3 PL= 0.535D-01 DiagD=T ESCF=     -2.211212 Diff=-0.102D+01 RMSDP= 0.557D-02.
 It=  4 PL= 0.946D-02 DiagD=F ESCF=     -2.506961 Diff=-0.296D+00 RMSDP= 0.765D-03.
 It=  5 PL= 0.465D-02 DiagD=F ESCF=     -2.405671 Diff= 0.101D+00 RMSDP= 0.392D-03.
 It=  6 PL= 0.259D-02 DiagD=F ESCF=     -2.407343 Diff=-0.167D-02 RMSDP= 0.522D-03.
 It=  7 PL= 0.310D-03 DiagD=F ESCF=     -2.409192 Diff=-0.185D-02 RMSDP= 0.267D-04.
 It=  8 PL= 0.128D-03 DiagD=F ESCF=     -2.408124 Diff= 0.107D-02 RMSDP= 0.123D-04.
 It=  9 PL= 0.637D-04 DiagD=F ESCF=     -2.408126 Diff=-0.179D-05 RMSDP= 0.128D-04.
 It= 10 PL= 0.677D-05 DiagD=F ESCF=     -2.408127 Diff=-0.129D-05 RMSDP= 0.163D-05.
 It= 11 PL= 0.405D-05 DiagD=F ESCF=     -2.408126 Diff= 0.560D-06 RMSDP= 0.101D-05.
 3-point extrapolation.
 It= 12 PL= 0.293D-05 DiagD=F ESCF=     -2.408126 Diff=-0.111D-07 RMSDP= 0.170D-05.
 It= 13 PL= 0.120D-04 DiagD=F ESCF=     -2.408126 Diff=-0.160D-07 RMSDP= 0.150D-05.
 It= 14 PL= 0.449D-05 DiagD=F ESCF=     -2.408126 Diff= 0.267D-07 RMSDP= 0.100D-05.
 It= 15 PL= 0.301D-05 DiagD=F ESCF=     -2.408126 Diff=-0.108D-07 RMSDP= 0.178D-05.
 It= 16 PL= 0.288D-06 DiagD=F ESCF=     -2.408126 Diff=-0.211D-07 RMSDP= 0.708D-07.
 SE2nd ... symmetry will not be used.
 SE2nd: IAtom=  1 IXYZ=1 IS=1.
 SE2nd: IAtom=  1 IXYZ=1 IS=2.
 SE2nd: IAtom=  1 IXYZ=2 IS=1.
 SE2nd: IAtom=  1 IXYZ=2 IS=2.
 SE2nd: IAtom=  1 IXYZ=3 IS=1.
 SE2nd: IAtom=  1 IXYZ=3 IS=2.
 SE2nd: IAtom=  2 IXYZ=1 IS=1.
 SE2nd: IAtom=  2 IXYZ=1 IS=2.
 SE2nd: IAtom=  2 IXYZ=2 IS=1.
 SE2nd: IAtom=  2 IXYZ=2 IS=2.
 SE2nd: IAtom=  2 IXYZ=3 IS=1.
 SE2nd: IAtom=  2 IXYZ=3 IS=2.
 SE2nd: IAtom=  3 IXYZ=1 IS=1.
 SE2nd: IAtom=  3 IXYZ=1 IS=2.
 SE2nd: IAtom=  3 IXYZ=2 IS=1.
 SE2nd: IAtom=  3 IXYZ=2 IS=2.
 SE2nd: IAtom=  3 IXYZ=3 IS=1.
 SE2nd: IAtom=  3 IXYZ=3 IS=2.
 SE2nd: IAtom=  4 IXYZ=1 IS=1.
 SE2nd: IAtom=  4 IXYZ=1 IS=2.
 SE2nd: IAtom=  4 IXYZ=2 IS=1.
 SE2nd: IAtom=  4 IXYZ=2 IS=2.
 SE2nd: IAtom=  4 IXYZ=3 IS=1.
 SE2nd: IAtom=  4 IXYZ=3 IS=2.
 SE2nd: IAtom=  5 IXYZ=1 IS=1.
 SE2nd: IAtom=  5 IXYZ=1 IS=2.
 SE2nd: IAtom=  5 IXYZ=2 IS=1.
 SE2nd: IAtom=  5 IXYZ=2 IS=2.
 SE2nd: IAtom=  5 IXYZ=3 IS=1.
 SE2nd: IAtom=  5 IXYZ=3 IS=2.
 SE2nd: IAtom=  6 IXYZ=1 IS=1.
 SE2nd: IAtom=  6 IXYZ=1 IS=2.
 SE2nd: IAtom=  6 IXYZ=2 IS=1.
 SE2nd: IAtom=  6 IXYZ=2 IS=2.
 SE2nd: IAtom=  6 IXYZ=3 IS=1.
 SE2nd: IAtom=  6 IXYZ=3 IS=2.
 SE2nd: IAtom=  7 IXYZ=1 IS=1.
 SE2nd: IAtom=  7 IXYZ=1 IS=2.
 SE2nd: IAtom=  7 IXYZ=2 IS=1.
 SE2nd: IAtom=  7 IXYZ=2 IS=2.
 SE2nd: IAtom=  7 IXYZ=3 IS=1.
 SE2nd: IAtom=  7 IXYZ=3 IS=2.
 SE2nd: IAtom=  8 IXYZ=1 IS=1.
 SE2nd: IAtom=  8 IXYZ=1 IS=2.
 SE2nd: IAtom=  8 IXYZ=2 IS=1.
 SE2nd: IAtom=  8 IXYZ=2 IS=2.
 SE2nd: IAtom=  8 IXYZ=3 IS=1.
 SE2nd: IAtom=  8 IXYZ=3 IS=2.
 SE2nd: IAtom=  9 IXYZ=1 IS=1.
 SE2nd: IAtom=  9 IXYZ=1 IS=2.
 SE2nd: IAtom=  9 IXYZ=2 IS=1.
 SE2nd: IAtom=  9 IXYZ=2 IS=2.
 SE2nd: IAtom=  9 IXYZ=3 IS=1.
 SE2nd: IAtom=  9 IXYZ=3 IS=2.
 SE2nd: IAtom= 10 IXYZ=1 IS=1.
 SE2nd: IAtom= 10 IXYZ=1 IS=2.
 SE2nd: IAtom= 10 IXYZ=2 IS=1.
 SE2nd: IAtom= 10 IXYZ=2 IS=2.
 SE2nd: IAtom= 10 IXYZ=3 IS=1.
 SE2nd: IAtom= 10 IXYZ=3 IS=2.
 SE2nd: IAtom= 11 IXYZ=1 IS=1.
 SE2nd: IAtom= 11 IXYZ=1 IS=2.
 SE2nd: IAtom= 11 IXYZ=2 IS=1.
 SE2nd: IAtom= 11 IXYZ=2 IS=2.
 SE2nd: IAtom= 11 IXYZ=3 IS=1.
 SE2nd: IAtom= 11 IXYZ=3 IS=2.
 SE2nd: IAtom= 12 IXYZ=1 IS=1.
 SE2nd: IAtom= 12 IXYZ=1 IS=2.
 SE2nd: IAtom= 12 IXYZ=2 IS=1.
 SE2nd: IAtom= 12 IXYZ=2 IS=2.
 SE2nd: IAtom= 12 IXYZ=3 IS=1.
 SE2nd: IAtom= 12 IXYZ=3 IS=2.
 SE2nd: IAtom= 13 IXYZ=1 IS=1.
 SE2nd: IAtom= 13 IXYZ=1 IS=2.
 SE2nd: IAtom= 13 IXYZ=2 IS=1.
 SE2nd: IAtom= 13 IXYZ=2 IS=2.
 SE2nd: IAtom= 13 IXYZ=3 IS=1.
 SE2nd: IAtom= 13 IXYZ=3 IS=2.
 SE2nd: IAtom= 14 IXYZ=1 IS=1.
 SE2nd: IAtom= 14 IXYZ=1 IS=2.
 SE2nd: IAtom= 14 IXYZ=2 IS=1.
 SE2nd: IAtom= 14 IXYZ=2 IS=2.
 SE2nd: IAtom= 14 IXYZ=3 IS=1.
 SE2nd: IAtom= 14 IXYZ=3 IS=2.
 SE2nd: IAtom= 15 IXYZ=1 IS=1.
 SE2nd: IAtom= 15 IXYZ=1 IS=2.
 SE2nd: IAtom= 15 IXYZ=2 IS=1.
 SE2nd: IAtom= 15 IXYZ=2 IS=2.
 SE2nd: IAtom= 15 IXYZ=3 IS=1.
 SE2nd: IAtom= 15 IXYZ=3 IS=2.
 SE2nd: IAtom= 16 IXYZ=1 IS=1.
 SE2nd: IAtom= 16 IXYZ=1 IS=2.
 SE2nd: IAtom= 16 IXYZ=2 IS=1.
 SE2nd: IAtom= 16 IXYZ=2 IS=2.
 SE2nd: IAtom= 16 IXYZ=3 IS=1.
 SE2nd: IAtom= 16 IXYZ=3 IS=2.
 SE2nd: IAtom= 17 IXYZ=1 IS=1.
 SE2nd: IAtom= 17 IXYZ=1 IS=2.
 SE2nd: IAtom= 17 IXYZ=2 IS=1.
 SE2nd: IAtom= 17 IXYZ=2 IS=2.
 SE2nd: IAtom= 17 IXYZ=3 IS=1.
 SE2nd: IAtom= 17 IXYZ=3 IS=2.
 SE2nd: IAtom= 18 IXYZ=1 IS=1.
 SE2nd: IAtom= 18 IXYZ=1 IS=2.
 SE2nd: IAtom= 18 IXYZ=2 IS=1.
 SE2nd: IAtom= 18 IXYZ=2 IS=2.
 SE2nd: IAtom= 18 IXYZ=3 IS=1.
 SE2nd: IAtom= 18 IXYZ=3 IS=2.
 Maximum difference in off-diagonal FC elements:
 I= 19 J= 17 Difference=    1.6578159666D-04
 Max difference between analytic and numerical forces:
 I= 19 Difference=    1.5768745404D-04
 Energy=   -0.088498743969 NIter=  17.
 Dipole moment=      -0.697351      -0.351183      -0.211548

 **********************************************************************

            Population analysis using the SCF density.

 **********************************************************************

 Alpha  occ. eigenvalues --   -1.46903  -1.36137  -1.31434  -1.16927  -1.03645
 Alpha  occ. eigenvalues --   -0.96248  -0.83759  -0.76765  -0.72073  -0.67417
 Alpha  occ. eigenvalues --   -0.65141  -0.62536  -0.61545  -0.59001  -0.55709
 Alpha  occ. eigenvalues --   -0.54606  -0.52516  -0.49213  -0.48425  -0.46341
 Alpha  occ. eigenvalues --   -0.45466  -0.43039  -0.42229  -0.40207  -0.32459
 Alpha virt. eigenvalues --   -0.00089   0.03382   0.04567   0.07390   0.10279
 Alpha virt. eigenvalues --    0.11801   0.12172   0.12836   0.13678   0.14291
 Alpha virt. eigenvalues --    0.14588   0.14883   0.15325   0.16193   0.17568
 Alpha virt. eigenvalues --    0.19307   0.20302   0.21123   0.21987   0.26457
          Condensed to atoms (all electrons):
              1          2          3          4          5          6
     1  C    4.163127   0.000000   0.000000   0.000000   0.000000   0.000000
     2  C    0.000000   4.091023   0.000000   0.000000   0.000000   0.000000
     3  C    0.000000   0.000000   4.167172   0.000000   0.000000   0.000000
     4  C    0.000000   0.000000   0.000000   4.145519   0.000000   0.000000
     5  N    0.000000   0.000000   0.000000   0.000000   4.907607   0.000000
     6  C    0.000000   0.000000   0.000000   0.000000   0.000000   3.664348
     7  O    0.000000   0.000000   0.000000   0.000000   0.000000   0.000000
     8  O    0.000000   0.000000   0.000000   0.000000   0.000000   0.000000
     9  C    0.000000   0.000000   0.000000   0.000000   0.000000   0.000000
    10  H    0.000000   0.000000   0.000000   0.000000   0.000000   0.000000
    11  H    0.000000   0.000000   0.000000   0.000000   0.000000   0.000000
    12  H    0.000000   0.000000   0.000000   0.000000   0.000000   0.000000
    13  H    0.000000   0.000000   0.000000   0.000000   0.000000   0.000000
    14  H    0.000000   0.000000   0.000000   0.000000   0.000000   0.000000
    15  H    0.000000   0.000000   0.000000   0.000000   0.000000   0.000000
    16  H    0.000000   0.000000   0.000000   0.000000   0.000000   0.000000
    17  H    0.000000   0.000000   0.000000   0.000000   0.000000   0.000000
    18  H    0.000000   0.000000   0.000000   0.000000   0.000000   0.000000
              7          8          9         10         11         12
     1  C    0.000000   0.000000   0.000000   0.000000   0.000000   0.000000
     2  C    0.000000   0.000000   0.000000   0.000000   0.000000   0.000000
     3  C    0.000000   0.000000   0.000000   0.000000   0.000000   0.000000
     4  C    0.000000   0.000000   0.000000   0.000000   0.000000   0.000000
     5  N    0.000000   0.000000   0.000000   0.000000   0.000000   0.000000
     6  C    0.000000   0.000000   0.000000   0.000000   0.000000   0.000000
     7  O    6.397111   0.000000   0.000000   0.000000   0.000000   0.000000
     8  O    0.000000   6.270541   0.000000   0.000000   0.000000   0.000000
     9  C    0.000000   0.000000   3.913520   0.000000   0.000000   0.000000
    10  H    0.000000   0.000000   0.000000   0.961711   0.000000   0.000000
    11  H    0.000000   0.000000   0.000000   0.000000   0.962618   0.000000
    12  H    0.000000   0.000000   0.000000   0.000000   0.000000   0.954731
    13  H    0.000000   0.000000   0.000000   0.000000   0.000000   0.000000
    14  H    0.000000   0.000000   0.000000   0.000000   0.000000   0.000000
    15  H    0.000000   0.000000   0.000000   0.000000   0.000000   0.000000
    16  H    0.000000   0.000000   0.000000   0.000000   0.000000   0.000000
    17  H    0.000000   0.000000   0.000000   0.000000   0.000000   0.000000
    18  H    0.000000   0.000000   0.000000   0.000000   0.000000   0.000000
             13         14         15         16         17         18
     1  C    0.000000   0.000000   0.000000   0.000000   0.000000   0.000000
     2  C    0.000000   0.000000   0.000000   0.000000   0.000000   0.000000
     3  C    0.000000   0.000000   0.000000   0.000000   0.000000   0.000000
     4  C    0.000000   0.000000   0.000000   0.000000   0.000000   0.000000
     5  N    0.000000   0.000000   0.000000   0.000000   0.000000   0.000000
     6  C    0.000000   0.000000   0.000000   0.000000   0.000000   0.000000
     7  O    0.000000   0.000000   0.000000   0.000000   0.000000   0.000000
     8  O    0.000000   0.000000   0.000000   0.000000   0.000000   0.000000
     9  C    0.000000   0.000000   0.000000   0.000000   0.000000   0.000000
    10  H    0.000000   0.000000   0.000000   0.000000   0.000000   0.000000
    11  H    0.000000   0.000000   0.000000   0.000000   0.000000   0.000000
    12  H    0.000000   0.000000   0.000000   0.000000   0.000000   0.000000
    13  H    0.915588   0.000000   0.000000   0.000000   0.000000   0.000000
    14  H    0.000000   0.914380   0.000000   0.000000   0.000000   0.000000
    15  H    0.000000   0.000000   0.903325   0.000000   0.000000   0.000000
    16  H    0.000000   0.000000   0.000000   0.921458   0.000000   0.000000
    17  H    0.000000   0.000000   0.000000   0.000000   0.852650   0.000000
    18  H    0.000000   0.000000   0.000000   0.000000   0.000000   0.893569
 Mulliken atomic charges:
              1
     1  C   -0.163127
     2  C   -0.091023
     3  C   -0.167172
     4  C   -0.145519
     5  N    0.092393
     6  C    0.335652
     7  O   -0.397111
     8  O   -0.270541
     9  C    0.086480
    10  H    0.038289
    11  H    0.037382
    12  H    0.045269
    13  H    0.084412
    14  H    0.085620
    15  H    0.096675
    16  H    0.078542
    17  H    0.147350
    18  H    0.106431
 Sum of Mulliken charges=   0.00000
 Atomic charges with hydrogens summed into heavy atoms:
              1
     1  C    0.006905
     2  C    0.005652
     3  C   -0.060741
     4  C    0.001831
     5  N    0.170934
     6  C    0.335652
     7  O   -0.397111
     8  O   -0.270541
     9  C    0.207420
    10  H    0.000000
    11  H    0.000000
    12  H    0.000000
    13  H    0.000000
    14  H    0.000000
    15  H    0.000000
    16  H    0.000000
    17  H    0.000000
    18  H    0.000000
 Sum of Mulliken charges=   0.00000
 APT atomic charges:
              1
     1  C   -0.193389
     2  C    0.016338
     3  C   -0.299239
     4  C    0.370787
     5  N   -0.889579
     6  C    1.650857
     7  O   -0.837339
     8  O   -0.728873
     9  C    0.326238
    10  H   -0.004098
    11  H   -0.004333
    12  H   -0.003229
    13  H    0.090353
    14  H    0.068667
    15  H    0.084229
    16  H    0.131109
    17  H    0.118337
    18  H    0.103604
 Sum of APT charges=   0.00044
 APT Atomic charges with hydrogens summed into heavy atoms:
              1
     1  C   -0.034369
     2  C    0.100567
     3  C   -0.195635
     4  C    0.489124
     5  N   -0.758470
     6  C    1.650857
     7  O   -0.837339
     8  O   -0.728873
     9  C    0.314579
    10  H    0.000000
    11  H    0.000000
    12  H    0.000000
    13  H    0.000000
    14  H    0.000000
    15  H    0.000000
    16  H    0.000000
    17  H    0.000000
    18  H    0.000000
 Sum of APT charges=   0.00044
 Full mass-weighted force constant matrix:
 Low frequencies ---   -3.8446   -0.1929   -0.0546    0.0490    1.7592    4.7653
 Low frequencies ---   46.5698   62.2027   91.4964
 Diagonal vibrational polarizability:
        7.9121311      23.1992291      50.7052592
 Harmonic frequencies (cm**-1), IR intensities (KM/Mole), Raman scattering
 activities (A**4/AMU), depolarization ratios for plane and unpolarized
 incident light, reduced masses (AMU), force constants (mDyne/A),
 and normal coordinates:
                     1                      2                      3
                     A                      A                      A
 Frequencies --    46.5691                62.1951                91.4959
 Red. masses --     4.4998                 2.6677                 3.4561
 Frc consts  --     0.0057                 0.0061                 0.0170
 IR Inten    --     2.0345                 0.1857                 0.6417
 Atom AN      X      Y      Z        X      Y      Z        X      Y      Z
   1   6     0.00  -0.04  -0.26     0.03  -0.02  -0.12     0.18  -0.16  -0.02
   2   6    -0.01  -0.02  -0.04     0.00   0.04   0.19     0.10   0.00   0.00
   3   6     0.00  -0.01   0.08    -0.02   0.03   0.12    -0.06   0.02  -0.01
   4   6     0.00   0.00   0.09    -0.03   0.00  -0.09    -0.12  -0.04   0.04
   5   7     0.01   0.00   0.16    -0.04  -0.01  -0.16    -0.14  -0.04   0.00
   6   6     0.01   0.01   0.12    -0.01  -0.01  -0.05    -0.09   0.02   0.01
   7   8     0.02  -0.02   0.26     0.00   0.00   0.08    -0.11   0.12  -0.03
   8   8    -0.01   0.04  -0.11     0.01  -0.01  -0.09     0.05  -0.04   0.08
   9   6    -0.03   0.04  -0.27     0.05  -0.02   0.13     0.17   0.09  -0.07
  10   1    -0.07  -0.14  -0.25    -0.14   0.01   0.28     0.39   0.23  -0.23
  11   1     0.02   0.20  -0.22     0.24  -0.04   0.25    -0.07   0.13  -0.21
  12   1    -0.05   0.07  -0.47     0.06  -0.02   0.02     0.29  -0.01   0.13
  13   1    -0.01  -0.05  -0.36     0.05  -0.02  -0.08     0.33  -0.19  -0.02
  14   1     0.01  -0.04  -0.36     0.03  -0.07  -0.44     0.09  -0.30  -0.05
  15   1    -0.02  -0.02   0.06     0.00   0.09   0.51     0.18   0.12   0.03
  16   1     0.01   0.00   0.16    -0.03  -0.01  -0.22    -0.12  -0.05  -0.07
  17   1     0.00   0.00   0.04    -0.02  -0.03  -0.21    -0.11  -0.05   0.11
  18   1     0.00  -0.02   0.15    -0.03   0.06   0.25    -0.09   0.11  -0.08
                     4                      5                      6
                     A                      A                      A
 Frequencies --   112.3744               150.4618               158.9302
 Red. masses --     1.9158                 1.7136                 1.7708
 Frc consts  --     0.0143                 0.0229                 0.0264
 IR Inten    --     2.8446                 3.0614                 0.5947
 Atom AN      X      Y      Z        X      Y      Z        X      Y      Z
   1   6    -0.04   0.06   0.01     0.01   0.00   0.05     0.02  -0.05   0.06
   2   6    -0.02   0.02   0.05     0.00   0.01  -0.02     0.01  -0.02  -0.09
   3   6     0.01   0.01  -0.01    -0.02   0.02   0.05    -0.04   0.01   0.13
   4   6     0.02   0.01  -0.10    -0.01  -0.01  -0.14    -0.03  -0.01  -0.11
   5   7     0.01   0.01  -0.11     0.00   0.01  -0.03     0.01   0.01   0.04
   6   6     0.02  -0.02   0.03     0.00  -0.01   0.03     0.00   0.01  -0.01
   7   8     0.03  -0.04   0.10    -0.01   0.00   0.00     0.01   0.01   0.04
   8   8     0.00  -0.02   0.12     0.01  -0.03   0.14     0.00   0.03  -0.11
   9   6    -0.03  -0.01  -0.09     0.01   0.01  -0.07     0.00   0.01   0.04
  10   1     0.38   0.15  -0.40    -0.22  -0.34   0.08     0.13   0.22  -0.04
  11   1    -0.46  -0.13  -0.38     0.27   0.33   0.12    -0.14  -0.18  -0.07
  12   1    -0.02  -0.05   0.35     0.00   0.06  -0.58     0.02  -0.02   0.33
  13   1    -0.08   0.07   0.06     0.03  -0.01   0.01     0.08  -0.08  -0.10
  14   1    -0.01   0.08  -0.09    -0.01  -0.01   0.14    -0.02  -0.07   0.33
  15   1    -0.04   0.01   0.15     0.02   0.01  -0.12     0.04  -0.01  -0.38
  16   1     0.01   0.01  -0.15    -0.01  -0.01   0.05     0.00  -0.02   0.17
  17   1     0.03   0.00  -0.14     0.00  -0.02  -0.36    -0.02  -0.01  -0.41
  18   1     0.02   0.00   0.03    -0.03   0.05   0.27    -0.06   0.06   0.47
                     7                      8                      9
                     A                      A                      A
 Frequencies --   193.0990               253.8235               323.9850
 Red. masses --     3.7208                 2.7177                 5.0996
 Frc consts  --     0.0817                 0.1032                 0.3154
 IR Inten    --     1.1460                 3.1960                17.2240
 Atom AN      X      Y      Z        X      Y      Z        X      Y      Z
   1   6    -0.05   0.25  -0.03     0.00   0.00  -0.04     0.00   0.12   0.00
   2   6     0.05   0.05  -0.06     0.00  -0.02  -0.08     0.10  -0.09   0.02
   3   6     0.13   0.06   0.09    -0.01   0.01   0.18     0.12  -0.09  -0.02
   4   6     0.07  -0.02   0.04    -0.01   0.01   0.20     0.04  -0.17  -0.09
   5   7    -0.08  -0.02   0.02    -0.03  -0.04  -0.20    -0.08  -0.13   0.05
   6   6    -0.14  -0.09   0.00     0.05   0.02  -0.05     0.03   0.01   0.03
   7   8    -0.14  -0.07   0.00     0.05   0.05   0.00    -0.06   0.39   0.02
   8   8    -0.01  -0.15  -0.04     0.02   0.02   0.06     0.05   0.02  -0.02
   9   6     0.18   0.00   0.00    -0.06  -0.04  -0.01    -0.13  -0.12  -0.01
  10   1     0.18   0.13   0.01    -0.06  -0.13  -0.02    -0.13  -0.22  -0.02
  11   1     0.19   0.08   0.01    -0.06  -0.04  -0.01    -0.14  -0.24  -0.02
  12   1     0.34  -0.12   0.00    -0.14   0.02  -0.04    -0.30   0.00   0.03
  13   1    -0.25   0.27  -0.17     0.00  -0.03  -0.37    -0.25   0.17   0.08
  14   1     0.06   0.46   0.12    -0.02   0.05   0.32     0.14   0.34  -0.10
  15   1    -0.02  -0.07  -0.22     0.02  -0.06  -0.44     0.03  -0.16   0.11
  16   1    -0.09   0.06  -0.02     0.01  -0.02  -0.45    -0.07  -0.15   0.02
  17   1     0.10  -0.14   0.00    -0.01   0.01   0.36     0.07  -0.28  -0.21
  18   1     0.12   0.07   0.18    -0.01   0.01   0.17     0.10  -0.04   0.08
                    10                     11                     12
                     A                      A                      A
 Frequencies --   368.8752               422.9747               535.5960
 Red. masses --     4.4020                 4.4735                 1.9197
 Frc consts  --     0.3529                 0.4716                 0.3245
 IR Inten    --     0.3149                 4.8629                39.6888
 Atom AN      X      Y      Z        X      Y      Z        X      Y      Z
   1   6    -0.05  -0.15   0.01    -0.03  -0.12   0.01    -0.03  -0.04   0.01
   2   6    -0.04  -0.17   0.01    -0.13   0.08  -0.01    -0.06   0.03  -0.02
   3   6     0.16  -0.16   0.03     0.02   0.06   0.00     0.07   0.02   0.00
   4   6     0.28  -0.01  -0.02     0.14   0.18   0.03     0.06   0.01  -0.04
   5   7     0.02   0.05  -0.09     0.12   0.15  -0.02    -0.12   0.02   0.10
   6   6    -0.09   0.03  -0.02    -0.07  -0.08  -0.02    -0.01   0.04   0.11
   7   8    -0.09   0.06   0.02    -0.12   0.17   0.05    -0.01  -0.05  -0.06
   8   8    -0.16   0.07   0.02     0.05  -0.18  -0.02     0.09   0.04  -0.02
   9   6     0.01   0.22   0.02     0.02  -0.23  -0.03     0.00  -0.04  -0.01
  10   1     0.01   0.35   0.04     0.02  -0.30  -0.04     0.00  -0.11  -0.01
  11   1     0.01   0.36   0.04     0.01  -0.30  -0.03     0.00  -0.13  -0.02
  12   1     0.20   0.08  -0.01    -0.07  -0.17  -0.01    -0.12   0.05   0.02
  13   1    -0.07  -0.15  -0.01     0.25  -0.17  -0.01     0.10  -0.05   0.07
  14   1    -0.05  -0.14   0.03    -0.19  -0.38   0.05    -0.09  -0.16  -0.02
  15   1    -0.09  -0.25   0.00    -0.10   0.10  -0.04    -0.07   0.01   0.02
  16   1    -0.02   0.19  -0.13     0.04   0.25   0.20     0.05   0.11  -0.88
  17   1     0.28  -0.03  -0.03     0.11   0.28   0.06     0.08  -0.05  -0.08
  18   1     0.20  -0.32   0.09     0.06  -0.07  -0.03     0.08  -0.02   0.10
                    13                     14                     15
                     A                      A                      A
 Frequencies --   616.5265               633.1388               638.3122
 Red. masses --     1.3579                 3.3326                 3.9197
 Frc consts  --     0.3041                 0.7871                 0.9410
 IR Inten    --     2.9191                 7.2791                25.9688
 Atom AN      X      Y      Z        X      Y      Z        X      Y      Z
   1   6    -0.01   0.00   0.01    -0.04   0.00   0.00     0.04   0.03   0.00
   2   6    -0.01   0.01  -0.14    -0.13   0.20  -0.01     0.08  -0.08  -0.04
   3   6     0.02   0.01   0.03     0.14   0.11  -0.01    -0.15  -0.04   0.02
   4   6     0.00   0.00   0.07    -0.01  -0.10   0.00    -0.04   0.08   0.01
   5   7     0.00  -0.02  -0.01     0.03  -0.16  -0.03     0.12   0.05  -0.07
   6   6     0.00   0.00  -0.06     0.09  -0.10   0.13     0.06  -0.11   0.34
   7   8     0.01   0.00   0.02     0.06   0.07  -0.04     0.00   0.07  -0.10
   8   8     0.00   0.00   0.01    -0.12  -0.03  -0.03    -0.12  -0.07  -0.08
   9   6     0.00   0.00   0.00    -0.02   0.06   0.01     0.00   0.01   0.00
  10   1     0.00   0.01   0.00    -0.02   0.22   0.02     0.00   0.15   0.01
  11   1     0.00   0.01   0.00    -0.02   0.20   0.02     0.00   0.11   0.01
  12   1     0.01   0.00   0.00     0.19  -0.09  -0.01     0.19  -0.13  -0.01
  13   1     0.00   0.07   0.78     0.43  -0.09  -0.07    -0.22   0.10   0.24
  14   1    -0.01  -0.10  -0.47    -0.30  -0.40   0.09     0.18   0.22  -0.17
  15   1    -0.02   0.02   0.09    -0.16   0.16  -0.04     0.12  -0.01   0.02
  16   1    -0.01  -0.01   0.02     0.02  -0.25   0.13     0.21   0.05  -0.51
  17   1     0.01  -0.03  -0.06     0.02  -0.20   0.03    -0.10   0.27   0.00
  18   1     0.00   0.04   0.32     0.15   0.09  -0.05    -0.16   0.01   0.09
                    16                     17                     18
                     A                      A                      A
 Frequencies --   660.3201               892.2561               927.0147
 Red. masses --     2.5202                 1.1982                 1.2774
 Frc consts  --     0.6474                 0.5620                 0.6467
 IR Inten    --   130.6694                66.7246                 9.2375
 Atom AN      X      Y      Z        X      Y      Z        X      Y      Z
   1   6     0.01   0.02   0.00     0.00   0.00  -0.01     0.00   0.00   0.01
   2   6     0.01   0.02   0.02     0.00   0.00   0.03     0.00  -0.01  -0.04
   3   6    -0.04   0.00  -0.01     0.00   0.01   0.12     0.00   0.00  -0.03
   4   6    -0.03   0.00  -0.03     0.00  -0.01  -0.02     0.00   0.02   0.14
   5   7     0.08  -0.03   0.16     0.00   0.00   0.01    -0.02   0.00  -0.02
   6   6     0.04  -0.05  -0.23     0.00   0.00   0.00     0.01   0.00   0.00
   7   8     0.03   0.06   0.06     0.00   0.00   0.00     0.02   0.00   0.00
   8   8    -0.11  -0.07   0.05     0.00   0.00   0.00    -0.01  -0.01   0.00
   9   6    -0.01   0.02   0.01     0.00   0.00   0.00     0.00  -0.01   0.00
  10   1    -0.01   0.13   0.02     0.00   0.00   0.00     0.00   0.01   0.00
  11   1    -0.01   0.16   0.02     0.00   0.00   0.00     0.00   0.01   0.00
  12   1     0.19  -0.12  -0.03    -0.01   0.01   0.00     0.04  -0.03  -0.01
  13   1     0.01   0.01  -0.10     0.00   0.02   0.19    -0.02  -0.02  -0.15
  14   1     0.01   0.02   0.06     0.01  -0.04  -0.28     0.01   0.04   0.20
  15   1     0.03   0.04   0.00     0.02  -0.05  -0.46    -0.01   0.05   0.37
  16   1     0.26   0.08  -0.82     0.01   0.00  -0.02    -0.03   0.03  -0.04
  17   1    -0.06   0.11  -0.03     0.01  -0.03  -0.26     0.04  -0.07  -0.85
  18   1    -0.06   0.04   0.00     0.03  -0.07  -0.76     0.01  -0.02  -0.19
                    19                     20                     21
                     A                      A                      A
 Frequencies --   947.3278               949.9051               988.6792
 Red. masses --     1.6085                 1.6815                 1.9345
 Frc consts  --     0.8505                 0.8939                 1.1141
 IR Inten    --     9.1702                 9.5413                 3.1541
 Atom AN      X      Y      Z        X      Y      Z        X      Y      Z
   1   6     0.00  -0.08   0.05    -0.01   0.11   0.03    -0.01   0.12  -0.02
   2   6    -0.03   0.01   0.09     0.03   0.00   0.08     0.06  -0.06   0.01
   3   6     0.03   0.04  -0.10    -0.03  -0.07  -0.09    -0.03  -0.07   0.02
   4   6     0.01   0.03   0.05    -0.01  -0.02   0.07     0.02   0.02  -0.02
   5   7    -0.08   0.03   0.00     0.08  -0.04  -0.02    -0.13   0.07   0.01
   6   6     0.04   0.02   0.00    -0.04  -0.03   0.00     0.04   0.07   0.00
   7   8     0.07   0.01   0.00    -0.07  -0.01   0.00     0.09   0.01  -0.01
   8   8    -0.04  -0.02   0.00     0.04   0.02   0.00    -0.05  -0.02   0.00
   9   6     0.00  -0.05  -0.01     0.01   0.05   0.01    -0.01  -0.09  -0.01
  10   1     0.00   0.06   0.00     0.00  -0.07   0.00     0.00   0.12   0.00
  11   1     0.01   0.05   0.01    -0.01  -0.06  -0.01     0.03   0.08   0.03
  12   1     0.19  -0.19  -0.03    -0.21   0.20   0.03     0.37  -0.37  -0.05
  13   1    -0.32  -0.04  -0.16     0.43   0.02  -0.15     0.51   0.04   0.05
  14   1     0.20   0.16  -0.43    -0.21  -0.29  -0.32    -0.29  -0.32   0.05
  15   1     0.06   0.03  -0.56    -0.01  -0.15  -0.41    -0.09  -0.27   0.03
  16   1    -0.09   0.04   0.06     0.09  -0.02  -0.10    -0.17   0.11   0.13
  17   1     0.06  -0.16  -0.15    -0.06   0.18  -0.28    -0.01   0.14   0.05
  18   1     0.01   0.06   0.31    -0.05  -0.02   0.28    -0.02  -0.10  -0.01
                    22                     23                     24
                     A                      A                      A
 Frequencies --  1008.8974              1031.5915              1106.6325
 Red. masses --     1.2135                 1.5429                 1.5690
 Frc consts  --     0.7278                 0.9674                 1.1321
 IR Inten    --     5.2891                20.5612                28.0421
 Atom AN      X      Y      Z        X      Y      Z        X      Y      Z
   1   6     0.00   0.00   0.00    -0.01   0.02   0.17     0.02   0.02   0.00
   2   6     0.00   0.00   0.00     0.01  -0.01  -0.12    -0.03   0.06  -0.01
   3   6     0.00   0.00   0.00     0.00   0.01   0.05    -0.06  -0.06   0.01
   4   6     0.00   0.00   0.00     0.00   0.00  -0.03     0.06   0.03   0.00
   5   7     0.00   0.00   0.00     0.00   0.00   0.00    -0.01  -0.06   0.00
   6   6     0.00   0.00   0.01     0.00   0.00   0.00    -0.02  -0.01   0.00
   7   8     0.00   0.00   0.00     0.00   0.00   0.00    -0.04  -0.01   0.00
   8   8     0.00  -0.01   0.05     0.00   0.00   0.00     0.11   0.01   0.00
   9   6    -0.01   0.02  -0.12     0.00   0.00   0.00    -0.10  -0.01   0.00
  10   1    -0.39   0.51   0.22     0.00   0.00   0.00    -0.15   0.34   0.07
  11   1     0.41  -0.56   0.07     0.00   0.00   0.00    -0.15   0.35   0.02
  12   1     0.00  -0.01   0.18     0.01  -0.01   0.00     0.24  -0.25  -0.04
  13   1    -0.01   0.00   0.00     0.03  -0.07  -0.65     0.06   0.02   0.00
  14   1     0.00   0.00   0.00     0.03  -0.07  -0.63     0.09   0.12  -0.01
  15   1     0.00   0.01   0.00    -0.02   0.02   0.30     0.25   0.46  -0.03
  16   1     0.00   0.00   0.00     0.00   0.00   0.01     0.00  -0.10   0.03
  17   1     0.00   0.00   0.00     0.00   0.01   0.14     0.04   0.12  -0.01
  18   1     0.00   0.00   0.00     0.01  -0.01  -0.12     0.06  -0.46   0.04
                    25                     26                     27
                     A                      A                      A
 Frequencies --  1115.2861              1137.9580              1154.2375
 Red. masses --     1.5824                 2.0939                 1.3556
 Frc consts  --     1.1597                 1.5976                 1.0641
 IR Inten    --     2.6578                 1.9321                18.3734
 Atom AN      X      Y      Z        X      Y      Z        X      Y      Z
   1   6     0.02   0.03   0.00     0.00   0.01   0.00     0.00  -0.02   0.00
   2   6    -0.02   0.04  -0.01    -0.02   0.03   0.00     0.00   0.02   0.00
   3   6    -0.07  -0.06   0.01    -0.02  -0.02   0.00     0.04  -0.01   0.00
   4   6     0.05   0.03  -0.01    -0.04  -0.06   0.01     0.04  -0.01  -0.01
   5   7    -0.07  -0.01   0.01     0.12   0.02  -0.02    -0.02  -0.09   0.00
   6   6     0.03  -0.01  -0.01    -0.05   0.08   0.02    -0.01   0.03   0.00
   7   8     0.06   0.02   0.00    -0.07  -0.01   0.00    -0.01  -0.01   0.00
   8   8    -0.09  -0.04   0.00    -0.07   0.15   0.02    -0.05   0.08   0.01
   9   6     0.08   0.04   0.00     0.06  -0.13  -0.02     0.04  -0.05  -0.01
  10   1     0.13  -0.31  -0.06     0.17  -0.19  -0.09     0.12  -0.17  -0.06
  11   1     0.12  -0.31  -0.02     0.18  -0.21   0.03     0.12  -0.17   0.01
  12   1    -0.30   0.32   0.05     0.37  -0.35  -0.05     0.13  -0.11  -0.02
  13   1     0.15   0.02   0.00     0.13   0.00   0.01    -0.22   0.01  -0.01
  14   1     0.06   0.10  -0.01     0.03   0.06   0.00     0.01  -0.02   0.00
  15   1     0.22   0.39  -0.03     0.06   0.14  -0.01     0.09   0.15  -0.01
  16   1    -0.09   0.01   0.06     0.20  -0.15  -0.12    -0.04  -0.07   0.04
  17   1     0.10  -0.12   0.03     0.11  -0.56   0.03    -0.22   0.84  -0.07
  18   1     0.06  -0.51   0.04     0.04  -0.22   0.03     0.01   0.11  -0.02
                    28                     29                     30
                     A                      A                      A
 Frequencies --  1184.7309              1269.2258              1280.8481
 Red. masses --     1.1574                 1.5916                 1.6408
 Frc consts  --     0.9571                 1.5107                 1.5860
 IR Inten    --    13.5170                89.0585               140.3185
 Atom AN      X      Y      Z        X      Y      Z        X      Y      Z
   1   6     0.07  -0.02   0.01    -0.03   0.01   0.00     0.00   0.00   0.00
   2   6    -0.01   0.05  -0.01     0.05  -0.06   0.01     0.00   0.02   0.00
   3   6     0.00   0.04   0.00     0.07   0.05   0.00     0.07   0.00   0.00
   4   6    -0.04   0.04   0.00    -0.05   0.00   0.00    -0.12  -0.15   0.01
   5   7     0.00  -0.02   0.00     0.02   0.04   0.00     0.02   0.10  -0.01
   6   6     0.00   0.02   0.00    -0.02   0.14   0.01     0.01  -0.05   0.00
   7   8     0.00   0.00   0.00     0.00  -0.01   0.00     0.01   0.00   0.00
   8   8     0.00  -0.01   0.00    -0.01  -0.10  -0.01     0.01   0.01   0.00
   9   6     0.00   0.00   0.00    -0.01   0.02   0.00     0.00  -0.01   0.00
  10   1     0.00  -0.01   0.00    -0.04   0.01   0.02    -0.02   0.06   0.02
  11   1     0.00  -0.01   0.00    -0.04   0.01  -0.02    -0.03   0.06  -0.01
  12   1    -0.01   0.01   0.00    -0.06   0.05   0.01    -0.03   0.02   0.00
  13   1    -0.01   0.00   0.00    -0.32   0.04  -0.02    -0.18   0.03  -0.01
  14   1     0.18   0.13   0.00    -0.30  -0.37   0.03    -0.07  -0.11   0.01
  15   1    -0.43  -0.55   0.04     0.26   0.22  -0.01     0.10   0.15  -0.01
  16   1     0.06  -0.20  -0.01     0.24  -0.57  -0.05    -0.18   0.70  -0.02
  17   1    -0.08   0.15  -0.02    -0.06   0.04  -0.02    -0.23   0.15  -0.01
  18   1     0.19  -0.58   0.07     0.17  -0.27   0.04     0.21  -0.45   0.06
                    31                     32                     33
                     A                      A                      A
 Frequencies --  1304.5279              1344.1678              1359.9286
 Red. masses --     1.7298                 1.0755                 1.2089
 Frc consts  --     1.7344                 1.1449                 1.3173
 IR Inten    --    63.0459                 0.1661                25.0250
 Atom AN      X      Y      Z        X      Y      Z        X      Y      Z
   1   6     0.03   0.02   0.00     0.00   0.00   0.00     0.03   0.01   0.00
   2   6     0.07  -0.01   0.00     0.00   0.00   0.00     0.00   0.05  -0.01
   3   6    -0.06   0.06  -0.01     0.00   0.00   0.00    -0.02  -0.04   0.00
   4   6     0.03   0.11  -0.01     0.00   0.00   0.00     0.02  -0.02   0.00
   5   7    -0.02  -0.06   0.01     0.00   0.00   0.00     0.01   0.00   0.00
   6   6     0.02  -0.15  -0.02     0.00   0.00   0.00     0.00   0.03   0.01
   7   8    -0.01   0.01   0.00     0.00   0.00   0.00     0.00   0.00   0.00
   8   8     0.01   0.09   0.01     0.00   0.00   0.00     0.01  -0.03   0.00
   9   6     0.01  -0.01   0.00     0.00  -0.01   0.08     0.03   0.09   0.01
  10   1     0.05  -0.01  -0.03     0.19   0.41  -0.07    -0.40  -0.38   0.28
  11   1     0.06  -0.01   0.02    -0.19  -0.38  -0.13    -0.43  -0.32  -0.32
  12   1     0.05  -0.03   0.00    -0.04   0.08  -0.76     0.34  -0.19  -0.04
  13   1    -0.57   0.09  -0.04     0.00   0.00   0.00    -0.16   0.03  -0.01
  14   1    -0.37  -0.55   0.04     0.00   0.00   0.00    -0.03  -0.09   0.01
  15   1     0.01  -0.11   0.01     0.00   0.00   0.00    -0.07  -0.04   0.00
  16   1    -0.09   0.09   0.04     0.00   0.00   0.00    -0.02   0.09   0.00
  17   1     0.15  -0.25   0.03     0.00   0.00   0.00     0.02  -0.03   0.00
  18   1     0.01  -0.18   0.02     0.00   0.00   0.00    -0.06   0.06  -0.01
                    34                     35                     36
                     A                      A                      A
 Frequencies --  1363.7971              1366.4460              1473.9458
 Red. masses --     1.6937                 2.2568                 2.9206
 Frc consts  --     1.8560                 2.4827                 3.7384
 IR Inten    --    82.9551                16.4589               421.0757
 Atom AN      X      Y      Z        X      Y      Z        X      Y      Z
   1   6    -0.04  -0.01   0.00     0.10   0.02   0.00     0.04   0.01   0.00
   2   6     0.01  -0.06   0.01    -0.02   0.16  -0.02    -0.03   0.07  -0.01
   3   6     0.02   0.06   0.00    -0.07  -0.15   0.01     0.03  -0.12   0.01
   4   6    -0.02   0.04   0.00     0.06  -0.08   0.01     0.00  -0.09   0.03
   5   7    -0.01  -0.01   0.00     0.02   0.01  -0.01    -0.09   0.24   0.00
   6   6     0.00  -0.05  -0.01    -0.03   0.12   0.02     0.05  -0.23  -0.05
   7   8     0.00   0.00   0.00     0.02   0.00   0.00    -0.01   0.01   0.00
   8   8    -0.04   0.07   0.01    -0.04  -0.03   0.00     0.02   0.07   0.01
   9   6     0.16  -0.12  -0.02     0.07  -0.12  -0.02    -0.01   0.02   0.00
  10   1    -0.43   0.19   0.41    -0.03   0.34   0.07     0.01  -0.04  -0.01
  11   1    -0.46   0.26  -0.31    -0.03   0.35   0.01     0.01  -0.04   0.00
  12   1    -0.23   0.18   0.03    -0.37   0.23   0.05     0.06  -0.03  -0.01
  13   1     0.19  -0.04   0.01    -0.46   0.09  -0.03    -0.10   0.03  -0.01
  14   1     0.04   0.11  -0.01    -0.08  -0.26   0.02     0.02  -0.02   0.00
  15   1     0.09   0.04   0.00    -0.22  -0.10   0.00    -0.06   0.04  -0.01
  16   1     0.03  -0.13   0.00     0.01   0.06  -0.02     0.27  -0.83   0.01
  17   1    -0.02   0.03  -0.01     0.06  -0.05   0.01    -0.08   0.15  -0.03
  18   1     0.07  -0.07   0.01    -0.19   0.22  -0.03    -0.04   0.13  -0.01
                    37                     38                     39
                     A                      A                      A
 Frequencies --  1825.9184              1834.2993              1935.8266
 Red. masses --     8.4269                 7.6094                12.2976
 Frc consts  --    16.5531                15.0848                27.1520
 IR Inten    --   129.1556                 1.5721               415.0211
 Atom AN      X      Y      Z        X      Y      Z        X      Y      Z
   1   6     0.06   0.02   0.00     0.44   0.21   0.00     0.00   0.00   0.00
   2   6    -0.06   0.05  -0.01    -0.47  -0.35   0.01     0.01   0.01   0.00
   3   6     0.36  -0.44   0.06     0.03   0.12  -0.01     0.01  -0.03   0.00
   4   6    -0.36   0.44  -0.06     0.00  -0.01   0.00     0.00   0.04   0.00
   5   7     0.01  -0.07   0.00     0.00  -0.01   0.00    -0.07   0.00   0.00
   6   6    -0.02  -0.03   0.01     0.01   0.01   0.00     0.80   0.17  -0.05
   7   8     0.02   0.00   0.00    -0.01   0.00   0.00    -0.49  -0.10   0.03
   8   8     0.00   0.01   0.00     0.00   0.00   0.00    -0.06  -0.05   0.00
   9   6     0.00   0.00   0.00     0.00   0.00   0.00     0.03   0.00   0.00
  10   1     0.00   0.00   0.00     0.00   0.00   0.00     0.01   0.03   0.02
  11   1     0.00   0.00   0.00     0.00   0.00   0.00     0.01   0.03  -0.02
  12   1     0.00   0.00   0.00     0.00   0.00   0.00    -0.07   0.08   0.01
  13   1    -0.05   0.04  -0.01    -0.07   0.36  -0.04     0.00  -0.01   0.00
  14   1     0.02  -0.06   0.01     0.17  -0.33   0.04    -0.01   0.00   0.00
  15   1     0.01   0.16  -0.02    -0.13   0.29  -0.04     0.00   0.00   0.00
  16   1    -0.08   0.16   0.01     0.00   0.00   0.00    -0.15   0.14   0.10
  17   1    -0.24  -0.27   0.01     0.01   0.00   0.00     0.01  -0.05  -0.01
  18   1     0.21   0.28  -0.02     0.02   0.12  -0.01     0.00   0.02   0.00
                    40                     41                     42
                     A                      A                      A
 Frequencies --  2943.3229              3037.9369              3049.7868
 Red. masses --     1.0966                 1.0909                 1.0926
 Frc consts  --     5.5970                 5.9321                 5.9877
 IR Inten    --    28.8558                 2.3378                28.8537
 Atom AN      X      Y      Z        X      Y      Z        X      Y      Z
   1   6    -0.01   0.00   0.00     0.00   0.00   0.00     0.00   0.00   0.00
   2   6     0.00   0.00   0.00    -0.04   0.03   0.00     0.06  -0.04   0.01
   3   6     0.00   0.00   0.00     0.07   0.02   0.00     0.05   0.01   0.00
   4   6    -0.09  -0.02   0.00     0.00   0.00   0.00     0.00   0.00   0.00
   5   7     0.00   0.00   0.00     0.00   0.00   0.00     0.00   0.00   0.00
   6   6     0.00   0.00   0.00     0.00   0.00   0.00     0.00   0.00   0.00
   7   8     0.00   0.00   0.00     0.00   0.00   0.00     0.00   0.00   0.00
   8   8     0.00   0.00   0.00     0.00   0.00   0.00     0.00   0.00   0.00
   9   6     0.00   0.00   0.00     0.00   0.00   0.00     0.00   0.00   0.00
  10   1     0.00   0.00   0.00     0.00   0.00   0.00     0.00   0.00   0.00
  11   1     0.00   0.00   0.00     0.00   0.00   0.00     0.00   0.00   0.00
  12   1     0.00   0.00   0.00     0.00   0.00   0.00     0.00   0.00   0.00
  13   1     0.00   0.01   0.00     0.00   0.04   0.00    -0.01  -0.08   0.01
  14   1     0.10  -0.05   0.01     0.01  -0.01   0.00    -0.01   0.00   0.00
  15   1     0.00   0.00   0.00     0.49  -0.33   0.06    -0.65   0.45  -0.08
  16   1     0.00   0.01   0.00     0.00   0.00   0.00     0.00   0.00   0.00
  17   1     0.95   0.29   0.01     0.00   0.00   0.00     0.00   0.00   0.00
  18   1     0.01   0.00   0.00    -0.76  -0.23  -0.01    -0.57  -0.18  -0.01
                    43                     44                     45
                     A                      A                      A
 Frequencies --  3059.5039              3087.1744              3089.9360
 Red. masses --     1.1039                 1.0853                 1.0834
 Frc consts  --     6.0880                 6.0945                 6.0945
 IR Inten    --     0.0072                 4.0995                 0.4574
 Atom AN      X      Y      Z        X      Y      Z        X      Y      Z
   1   6     0.00   0.00   0.00    -0.07   0.04  -0.01     0.00   0.00   0.00
   2   6     0.00   0.00   0.00     0.01   0.00   0.00     0.00   0.00   0.00
   3   6     0.00   0.00   0.00     0.00   0.00   0.00     0.00   0.00   0.00
   4   6     0.00   0.00   0.00     0.01   0.00   0.00     0.00   0.00   0.00
   5   7     0.00   0.00   0.00     0.00   0.00   0.00     0.00   0.00   0.00
   6   6     0.00   0.00   0.00     0.00   0.00   0.00     0.00   0.00   0.00
   7   8     0.00   0.00   0.00     0.00   0.00   0.00     0.00   0.00   0.00
   8   8     0.00   0.00   0.00     0.00   0.00   0.00     0.00   0.00   0.00
   9   6     0.00  -0.01   0.09     0.00   0.00   0.00    -0.08  -0.03   0.00
  10   1    -0.43   0.03  -0.54     0.00   0.00   0.00     0.37  -0.05   0.54
  11   1     0.39   0.09  -0.59     0.00   0.00   0.00     0.31   0.07  -0.55
  12   1     0.00   0.00   0.04     0.00   0.00   0.00     0.23   0.32   0.02
  13   1     0.00   0.00   0.00    -0.01   0.08  -0.01     0.00   0.00   0.00
  14   1     0.00   0.00   0.00     0.82  -0.53   0.10     0.00   0.00   0.00
  15   1     0.00   0.00   0.00    -0.01   0.01   0.00     0.00   0.00   0.00
  16   1     0.00   0.00   0.00     0.00   0.00   0.00     0.00   0.00   0.00
  17   1     0.00   0.00   0.00    -0.10  -0.04   0.00     0.00   0.00   0.00
  18   1     0.00   0.00   0.00     0.01   0.00   0.00     0.00   0.00   0.00
                    46                     47                     48
                     A                      A                      A
 Frequencies --  3140.3819              3153.9624              3361.9146
 Red. masses --     1.0426                 1.0942                 1.0772
 Frc consts  --     6.0583                 6.4127                 7.1732
 IR Inten    --     1.8249                16.4613                13.3450
 Atom AN      X      Y      Z        X      Y      Z        X      Y      Z
   1   6     0.00   0.00   0.00    -0.01  -0.09   0.01     0.00   0.00   0.00
   2   6     0.00   0.00   0.00     0.01   0.00   0.00     0.00   0.00   0.00
   3   6     0.00   0.00   0.00     0.00   0.00   0.00     0.00   0.00   0.00
   4   6     0.00   0.00   0.00     0.00   0.00   0.00     0.00   0.00   0.00
   5   7     0.00   0.00   0.00     0.00   0.00   0.00    -0.07  -0.02  -0.01
   6   6     0.00   0.00   0.00     0.00   0.00   0.00     0.00   0.00   0.00
   7   8     0.00   0.00   0.00     0.00   0.00   0.00     0.00   0.00   0.00
   8   8     0.00   0.00   0.00     0.00   0.00   0.00     0.00   0.00   0.00
   9   6    -0.02  -0.05   0.00     0.00   0.00   0.00     0.00   0.00   0.00
  10   1    -0.19   0.00  -0.24     0.00   0.00   0.00     0.00   0.00   0.00
  11   1    -0.16  -0.06   0.25     0.00   0.00   0.00     0.00   0.00   0.00
  12   1     0.55   0.71   0.05     0.00   0.00   0.00     0.00   0.00   0.00
  13   1     0.00   0.00   0.00     0.14   0.98  -0.09     0.00   0.00   0.00
  14   1     0.00   0.00   0.00    -0.05   0.01   0.00     0.00   0.00   0.00
  15   1     0.00   0.00   0.00    -0.07   0.04  -0.01     0.00   0.00   0.00
  16   1     0.00   0.00   0.00     0.00   0.00   0.00     0.92   0.32   0.20
  17   1     0.00   0.00   0.00     0.00   0.00   0.00     0.00   0.00   0.00
  18   1     0.00   0.00   0.00    -0.01   0.00   0.00     0.00   0.00   0.00

 -------------------
 - Thermochemistry -
 -------------------
 Temperature   298.150 Kelvin.  Pressure   1.00000 Atm.
 Atom  1 has atomic number  6 and mass  12.00000
 Atom  2 has atomic number  6 and mass  12.00000
 Atom  3 has atomic number  6 and mass  12.00000
 Atom  4 has atomic number  6 and mass  12.00000
 Atom  5 has atomic number  7 and mass  14.00307
 Atom  6 has atomic number  6 and mass  12.00000
 Atom  7 has atomic number  8 and mass  15.99491
 Atom  8 has atomic number  8 and mass  15.99491
 Atom  9 has atomic number  6 and mass  12.00000
 Atom 10 has atomic number  1 and mass   1.00783
 Atom 11 has atomic number  1 and mass   1.00783
 Atom 12 has atomic number  1 and mass   1.00783
 Atom 13 has atomic number  1 and mass   1.00783
 Atom 14 has atomic number  1 and mass   1.00783
 Atom 15 has atomic number  1 and mass   1.00783
 Atom 16 has atomic number  1 and mass   1.00783
 Atom 17 has atomic number  1 and mass   1.00783
 Atom 18 has atomic number  1 and mass   1.00783
 Molecular mass:   127.06333 amu.
 Principal axes and moments of inertia in atomic units:
                           1         2         3
     EIGENVALUES --   305.032102903.968473174.97412
           X           -0.23730   0.96997   0.05339
           Y            0.97143   0.23708   0.01060
           Z            0.00238  -0.05438   0.99852
 This molecule is an asymmetric top.
 Rotational symmetry number  1.
 Rotational temperatures (Kelvin)      0.28395     0.02983     0.02728
 Rotational constants (GHZ):           5.91656     0.62147     0.56843
 Zero-point vibrational energy     370818.7 (Joules/Mol)
                                   88.62780 (Kcal/Mol)
 Warning -- explicit consideration of  13 degrees of freedom as
           vibrations may cause significant error
 Vibrational temperatures:     67.00    89.48   131.64   161.68   216.48
          (Kelvin)            228.66   277.83   365.19   466.14   530.73
                              608.57   770.60   887.04   910.94   918.39
                              950.05  1283.76  1333.77  1362.99  1366.70
                             1422.49  1451.58  1484.23  1592.20  1604.65
                             1637.27  1660.69  1704.56  1826.13  1842.85
                             1876.92  1933.96  1956.63  1962.20  1966.01
                             2120.68  2627.09  2639.14  2785.22  4234.78
                             4370.91  4387.96  4401.94  4441.75  4445.72
                             4518.30  4537.84  4837.04
 
 Zero-point correction=                           0.141237 (Hartree/Particle)
 Thermal correction to Energy=                    0.151777
 Thermal correction to Enthalpy=                  0.152721
 Thermal correction to Gibbs Free Energy=         0.104349
 Sum of electronic and zero-point Energies=              0.052739
 Sum of electronic and thermal Energies=                 0.063278
 Sum of electronic and thermal Enthalpies=               0.064222
 Sum of electronic and thermal Free Energies=            0.015850
 
                     E (Thermal)             CV                S
                      KCal/Mol        Cal/Mol-Kelvin    Cal/Mol-Kelvin
 Total                   95.241             36.072            101.808
 Electronic               0.000              0.000              0.000
 Translational            0.889              2.981             40.432
 Rotational               0.889              2.981             29.421
 Vibrational             93.464             30.111             31.955
 Vibration  1             0.595              1.979              4.958
 Vibration  2             0.597              1.972              4.386
 Vibration  3             0.602              1.955              3.628
 Vibration  4             0.607              1.939              3.227
 Vibration  5             0.618              1.902              2.666
 Vibration  6             0.621              1.893              2.562
 Vibration  7             0.635              1.849              2.198
 Vibration  8             0.665              1.756              1.704
 Vibration  9             0.709              1.627              1.290
 Vibration 10             0.741              1.536              1.084
 Vibration 11             0.785              1.420              0.882
 Vibration 12             0.891              1.171              0.575
 Vibration 13             0.976              0.997              0.422
                       Q            Log10(Q)             Ln(Q)
 Total Bot       0.100682D-47        -47.997049       -110.517290
 Total V=0       0.927901D+17         16.967502         39.069116
 Vib (Bot)       0.297907D-61        -61.525920       -141.668666
 Vib (Bot)  1    0.444048D+01          0.647430          1.490763
 Vib (Bot)  2    0.331938D+01          0.521057          1.199778
 Vib (Bot)  3    0.224656D+01          0.351518          0.809400
 Vib (Bot)  4    0.182166D+01          0.260466          0.599746
 Vib (Bot)  5    0.134746D+01          0.129517          0.298225
 Vib (Bot)  6    0.127246D+01          0.104643          0.240950
 Vib (Bot)  7    0.103529D+01          0.015061          0.034680
 Vib (Bot)  8    0.767525D+00         -0.114907         -0.264584
 Vib (Bot)  9    0.578832D+00         -0.237448         -0.546744
 Vib (Bot) 10    0.493930D+00         -0.306334         -0.705361
 Vib (Bot) 11    0.414184D+00         -0.382806         -0.881444
 Vib (Bot) 12    0.297041D+00         -0.527184         -1.213885
 Vib (Bot) 13    0.238070D+00         -0.623295         -1.435190
 Vib (V=0)       0.274556D+04          3.438631          7.917740
 Vib (V=0)  1    0.496854D+01          0.696229          1.603127
 Vib (V=0)  2    0.385683D+01          0.586230          1.349844
 Vib (V=0)  3    0.280153D+01          0.447395          1.030165
 Vib (V=0)  4    0.238903D+01          0.378221          0.870887
 Vib (V=0)  5    0.193724D+01          0.287184          0.661265
 Vib (V=0)  6    0.186717D+01          0.271183          0.624423
 Vib (V=0)  7    0.164971D+01          0.217406          0.500597
 Vib (V=0)  8    0.141602D+01          0.151070          0.347851
 Vib (V=0)  9    0.126488D+01          0.102050          0.234980
 Vib (V=0) 10    0.120283D+01          0.080204          0.184676
 Vib (V=0) 11    0.114927D+01          0.060421          0.139125
 Vib (V=0) 12    0.108158D+01          0.034058          0.078421
 Vib (V=0) 13    0.105378D+01          0.022752          0.052388
 Electronic      0.100000D+01          0.000000          0.000000
 Translational   0.562970D+08          7.750486         17.846152
 Rotational      0.600323D+06          5.778385         13.305224
 -------------------------------------------------------------------
 Center     Atomic                   Forces (Hartrees/Bohr)
 Number     Number              X              Y              Z
 -------------------------------------------------------------------
    1          6          -0.000000958   -0.000013870   -0.000003939
    2          6           0.000019707   -0.000005445    0.000006652
    3          6           0.000005266    0.000014622   -0.000005084
    4          6          -0.000006513    0.000003270   -0.000000531
    5          7          -0.000008607    0.000007268   -0.000000786
    6          6           0.000017600    0.000002686   -0.000007213
    7          8          -0.000007274   -0.000003352    0.000003436
    8          8          -0.000006758    0.000001318    0.000003726
    9          6           0.000003640   -0.000005637   -0.000001757
   10          1          -0.000000736    0.000002984   -0.000001008
   11          1           0.000000268    0.000000503    0.000001577
   12          1          -0.000000821    0.000003042   -0.000000917
   13          1          -0.000007452    0.000000116    0.000000287
   14          1          -0.000007451    0.000001415    0.000001625
   15          1          -0.000001804   -0.000003259    0.000000168
   16          1           0.000003865    0.000001988    0.000003107
   17          1          -0.000005772   -0.000003493   -0.000000068
   18          1           0.000003801   -0.000004156    0.000000725
 -------------------------------------------------------------------
 Cartesian Forces:  Max     0.000019707 RMS     0.000005984
 ------------------------------------------------------------------------
           Internal Coordinate Forces (Hartree/Bohr or radian)
 Cent Atom N1     Length/X     N2     Alpha/Y      N3      Beta/Z       J
 ------------------------------------------------------------------------
   1  C        -0.000001(   1)     -0.000014(  19)     -0.000004(  37)
   2  C         0.000020(   2)     -0.000005(  20)      0.000007(  38)
   3  C         0.000005(   3)      0.000015(  21)     -0.000005(  39)
   4  C        -0.000007(   4)      0.000003(  22)     -0.000001(  40)
   5  N        -0.000009(   5)      0.000007(  23)     -0.000001(  41)
   6  C         0.000018(   6)      0.000003(  24)     -0.000007(  42)
   7  O        -0.000007(   7)     -0.000003(  25)      0.000003(  43)
   8  O        -0.000007(   8)      0.000001(  26)      0.000004(  44)
   9  C         0.000004(   9)     -0.000006(  27)     -0.000002(  45)
  10  H        -0.000001(  10)      0.000003(  28)     -0.000001(  46)
  11  H         0.000000(  11)      0.000001(  29)      0.000002(  47)
  12  H        -0.000001(  12)      0.000003(  30)     -0.000001(  48)
  13  H        -0.000007(  13)      0.000000(  31)      0.000000(  49)
  14  H        -0.000007(  14)      0.000001(  32)      0.000002(  50)
  15  H        -0.000002(  15)     -0.000003(  33)      0.000000(  51)
  16  H         0.000004(  16)      0.000002(  34)      0.000003(  52)
  17  H        -0.000006(  17)     -0.000003(  35)      0.000000(  53)
  18  H         0.000004(  18)     -0.000004(  36)      0.000001(  54)
 ------------------------------------------------------------------------
 Internal  Forces:  Max     0.000019707 RMS     0.000005984

 GradGradGradGradGradGradGradGradGradGradGradGradGradGradGradGradGradGrad
 Berny optimization.
 Search for a local minimum.
 Step number   1 out of a maximum of   2
 All quantities printed in internal units (Hartrees-Bohrs-Radians)
 Second derivative matrix not updated -- analytic derivatives used.
     Eigenvalues ---    0.00034   0.00045   0.00086   0.00154   0.00205
     Eigenvalues ---    0.00420   0.00571   0.00741   0.01827   0.02001
     Eigenvalues ---    0.02399   0.03380   0.03820   0.04286   0.05175
     Eigenvalues ---    0.05644   0.05822   0.06023   0.06658   0.07584
     Eigenvalues ---    0.10056   0.10588   0.10985   0.11196   0.11481
     Eigenvalues ---    0.14480   0.14953   0.17987   0.19162   0.21457
     Eigenvalues ---    0.26099   0.26797   0.38186   0.39345   0.49283
     Eigenvalues ---    0.59402   0.68371   0.75880   0.76903   0.82102
     Eigenvalues ---    0.86949   0.88165   0.97916   1.02882   1.07133
     Eigenvalues ---    1.59167   1.68351   1.89418
 Angle between quadratic step and forces=  84.83 degrees.
 Linear search not attempted -- first point.
 TrRot=  0.000016  0.000000  0.000133  0.000000 -0.000018  0.000000
 Variable       Old X    -DE/DX   Delta X   Delta X   Delta X     New X
                                 (Linear)    (Quad)   (Total)
    X1       -4.42843   0.00000   0.00000  -0.00003  -0.00001  -4.42844
    Y1        7.97662  -0.00001   0.00000  -0.00005  -0.00004   7.97657
    Z1       -0.27794   0.00000   0.00000  -0.00038  -0.00033  -0.27828
    X2       -6.71850   0.00002   0.00000   0.00001   0.00004  -6.71846
    Y2        6.92668  -0.00001   0.00000  -0.00010  -0.00009   6.92659
    Z2       -0.28551   0.00001   0.00000  -0.00008  -0.00007  -0.28558
    X3       -7.14011   0.00001   0.00000   0.00005   0.00007  -7.14004
    Y3        4.22630   0.00001   0.00000  -0.00005  -0.00005   4.22625
    Z3       -0.02815  -0.00001   0.00000   0.00003   0.00004  -0.02811
    X4       -5.21008  -0.00001   0.00000   0.00006   0.00007  -5.21001
    Y4        2.59137   0.00000   0.00000   0.00000   0.00000   2.59138
    Z4        0.22688   0.00000   0.00000   0.00017   0.00021   0.22709
    X5       -5.61740  -0.00001   0.00000   0.00011   0.00011  -5.61729
    Y5       -0.04279   0.00001   0.00000   0.00004   0.00005  -0.04274
    Z5        0.62511   0.00000   0.00000   0.00035   0.00039   0.62550
    X6       -3.61877   0.00002   0.00000   0.00010   0.00012  -3.61865
    Y6       -1.75848   0.00000   0.00000   0.00004   0.00004  -1.75844
    Z6        0.07923  -0.00001   0.00000   0.00029   0.00035   0.07958
    X7       -1.36824  -0.00001   0.00000   0.00014   0.00015  -1.36809
    Y7       -1.28284   0.00000   0.00000  -0.00008  -0.00008  -1.28292
    Z7       -0.05498   0.00000   0.00000   0.00061   0.00072  -0.05426
    X8       -4.56010  -0.00001   0.00000  -0.00004  -0.00002  -4.56013
    Y8       -4.15568   0.00000   0.00000   0.00013   0.00013  -4.15555
    Z8       -0.15458   0.00000   0.00000  -0.00009  -0.00004  -0.15462
    X9       -2.81492   0.00000   0.00000  -0.00013  -0.00011  -2.81503
    Y9       -6.15275  -0.00001   0.00000   0.00008   0.00008  -6.15268
    Z9       -0.45040   0.00000   0.00000  -0.00035  -0.00027  -0.45067
   X10       -1.54526   0.00000   0.00000  -0.00052  -0.00053  -1.54579
   Y10       -6.30756   0.00000   0.00000  -0.00045  -0.00044  -6.30801
   Z10        1.17613   0.00000   0.00000  -0.00010   0.00000   1.17613
   X11       -1.70834   0.00000   0.00000   0.00029   0.00035  -1.70799
   Y11       -5.94891   0.00000   0.00000   0.00051   0.00051  -5.94840
   Z11       -2.18708   0.00000   0.00000  -0.00003   0.00007  -2.18701
   X12       -4.05259   0.00000   0.00000  -0.00026  -0.00024  -4.05283
   Y12       -7.80195   0.00000   0.00000   0.00024   0.00024  -7.80172
   Z12       -0.56645   0.00000   0.00000  -0.00113  -0.00107  -0.56752
   X13       -4.11949  -0.00001   0.00000  -0.00029  -0.00026  -4.11974
   Y13        9.99338   0.00000   0.00000  -0.00002  -0.00002   9.99336
   Z13       -0.47250   0.00000   0.00000  -0.00051  -0.00045  -0.47295
   X14       -2.71553  -0.00001   0.00000   0.00000   0.00002  -2.71551
   Y14        6.84795   0.00000   0.00000   0.00005   0.00005   6.84800
   Z14       -0.07285   0.00000   0.00000  -0.00042  -0.00034  -0.07319
   X15       -8.41971   0.00000   0.00000  -0.00007  -0.00004  -8.41975
   Y15        8.09070   0.00000   0.00000  -0.00019  -0.00019   8.09051
   Z15       -0.49148   0.00000   0.00000   0.00003   0.00001  -0.49147
   X16       -7.36220   0.00000   0.00000   0.00009   0.00010  -7.36210
   Y16       -0.64734   0.00000   0.00000   0.00001   0.00002  -0.64732
   Z16        0.24259   0.00000   0.00000   0.00054   0.00054   0.24313
   X17       -3.22903  -0.00001   0.00000   0.00005   0.00006  -3.22897
   Y17        3.25585   0.00000   0.00000  -0.00002  -0.00002   3.25583
   Z17        0.24637   0.00000   0.00000   0.00014   0.00021   0.24658
   X18       -9.11767   0.00000   0.00000   0.00010   0.00012  -9.11755
   Y18        3.60172   0.00000   0.00000  -0.00018  -0.00018   3.60155
   Z18       -0.05049   0.00000   0.00000   0.00007   0.00003  -0.05046
         Item               Value     Threshold  Converged?
 Maximum Force            0.000020     0.000450     YES
 RMS     Force            0.000006     0.000300     YES
 Maximum Displacement     0.001068     0.001800     YES
 RMS     Displacement     0.000275     0.001200     YES
 Predicted change in Energy=-4.039806D-09
 Optimization completed.
    -- Stationary point found.
 GradGradGradGradGradGradGradGradGradGradGradGradGradGradGradGradGradGrad

 1\1\GINC-WOLF01\Freq\RPM3\ZDO\C6H9N1O2\XDANEK7\16-Dec-2012\0\\# PM3 Fr
 eq NoSymm\\reaktant1\\0,1\C,-2.343425,4.221044,-0.147082\C,-3.555275,3
 .665443,-0.151086\C,-3.778383,2.23646,-0.014894\C,-2.757055,1.371296,0
 .120058\N,-2.972598,-0.022641,0.330796\C,-1.914969,-0.930547,0.041925\
 O,-0.724044,-0.678849,-0.029095\O,-2.413103,-2.199092,-0.081802\C,-1.4
 89592,-3.255897,-0.23834\H,-0.817719,-3.337818,0.622383\H,-0.904012,-3
 .148028,-1.157354\H,-2.14454,-4.128616,-0.299755\H,-2.179939,5.28827,-
 0.250035\H,-1.436995,3.623781,-0.038553\H,-4.455516,4.281412,-0.260081
 \H,-3.895907,-0.342558,0.128372\H,-1.708727,1.722922,0.130373\H,-4.824
 862,1.90595,-0.026719\\Version=EM64L-G03RevE.01\HF=-0.0884987\RMSD=0.0
 00e+00\RMSF=5.984e-06\ZeroPoint=0.1412374\Thermal=0.1517768\Dipole=-0.
 6973514,-0.3511834,-0.2115479\DipoleDeriv=-0.1120823,-0.0485917,0.0159
 584,0.0004768,-0.1848615,-0.0137064,0.0089435,-0.0089024,-0.2832231,-0
 .0647793,-0.0041786,0.0006908,-0.0176805,0.2181344,-0.0367652,0.004438
 7,-0.0479385,-0.1043407,-0.189252,0.3488919,-0.0489234,0.1044056,-0.45
 89316,0.0388142,-0.0078528,0.0393425,-0.249532,-0.1484637,-0.07616,0.0
 314653,-0.3633619,1.2123785,-0.2393138,0.0322124,-0.2189785,0.0484457,
 -0.5162112,0.3426089,0.1551143,0.7099605,-1.6370109,0.0605933,0.176679
 8,0.2851582,-0.5155162,2.024834,-0.5389834,-0.2135301,-0.2697599,2.238
 9914,0.2050197,-0.1003038,0.0112879,0.6887443,-1.3219082,0.0984776,0.0
 903962,-0.0749303,-0.7308124,0.0033851,0.0419263,0.0176685,-0.4592949,
 -0.5313968,0.0119385,-0.0042606,0.023258,-1.2442948,-0.0829129,-0.0136
 206,-0.0774796,-0.4109273,0.3099892,-0.3235656,-0.0276943,-0.1932512,0
 .4045269,0.0170905,-0.0309382,0.0533688,0.2641981,0.0084819,0.0097484,
 0.0286045,0.0037503,-0.0191898,-0.0115702,0.0214658,-0.0272233,-0.0015
 852,0.0036917,0.0159612,-0.0277481,0.0070121,-0.0229248,0.0084595,-0.0
 191686,0.0192208,0.0062353,-0.0043234,0.1076055,0.0084048,0.0261901,-0
 .0154772,-0.0022012,0.0035162,-0.0093058,0.0101137,0.0288766,0.0151042
 ,-0.006783,0.0289422,0.115737,0.0041557,-0.007837,0.002465,0.1264459,0
 .0654183,0.0313404,-0.0052212,-0.0259922,-0.0000811,0.0130654,-0.00004
 78,0.0154672,0.1406645,0.0831713,-0.0421955,0.0008522,-0.0544062,0.044
 0633,0.0054534,0.0036236,0.0076662,0.1254516,0.0903273,0.0695416,0.001
 106,0.0386127,0.013512,-0.0055138,-0.1004218,-0.1045827,0.289488,0.142
 3925,0.0059992,0.0052053,0.0427995,0.0527949,0.021428,-0.007111,0.0298
 53,0.159823,0.1316541,-0.0236871,-0.003658,0.0138449,0.0145651,0.01453
 ,-0.0055777,0.0128192,0.1645928\PG=C01 [X(C6H9N1O2)]\NImag=0\\0.883454
 59,0.16368794,0.66651942,0.02168375,-0.04814468,0.13076518,-0.58112554
 ,-0.22043687,-0.00332680,0.90706239,-0.20424145,-0.18454315,0.00203134
 ,0.13169432,0.69907895,-0.00503752,0.00119955,-0.06592274,0.02499203,-
 0.05083430,0.14777606,-0.00548648,-0.03758837,0.00312140,-0.08933968,-
 0.05702668,0.00516635,0.80368035,-0.04218964,-0.03729340,0.00265099,-0
 .02139497,-0.32865856,0.02587638,-0.13871928,0.78496982,0.00355297,0.0
 0285208,0.00914883,0.00126204,0.02447622,-0.06847033,0.04455192,-0.074
 23984,0.14406852,-0.00640178,-0.00450789,0.00010566,0.01410131,0.02609
 986,-0.00254474,-0.42349922,0.25074149,-0.04118309,0.79949556,0.006195
 44,-0.00383447,0.00079165,0.02119674,-0.06166479,0.00865149,0.25116214
 ,-0.27703935,0.03326776,-0.16339292,0.76783889,-0.00113048,0.00016360,
 0.00091179,-0.00179552,0.00881132,0.00362892,-0.04042246,0.03233805,-0
 .06809269,0.03814275,-0.07925016,0.13755088,0.00016052,-0.00033599,-0.
 00003630,-0.00289438,0.00082111,-0.00000243,0.00792500,0.03271648,-0.0
 0447472,-0.10219509,-0.06306187,0.00323699,0.67495674,-0.00186521,-0.0
 0146874,0.00017585,0.00302056,0.00714671,-0.00240083,0.02710670,-0.062
 78549,0.00984747,-0.05985058,-0.30853010,0.05576634,0.01602695,0.64107
 897,0.00056678,0.00029286,-0.00036986,-0.00078129,-0.00165865,0.006847
 28,-0.00638482,0.01104875,0.00451108,0.01023683,0.03072164,-0.03819010
 ,0.03918830,0.00909082,0.08163015,-0.00041626,-0.00095965,0.00027834,0
 .00035794,0.00185706,-0.00088370,0.00193072,-0.00617331,0.00097695,0.0
 0681509,0.02852861,0.00370234,-0.19974497,0.07324261,0.01280475,1.1122
 4268,0.00026113,0.00077681,-0.00018130,0.00032394,-0.00157779,0.001390
 57,-0.00468771,-0.00044603,-0.00028396,0.02756502,-0.04809776,-0.00908
 121,0.10782429,-0.16115394,-0.02098723,0.10023760,0.65370379,-0.000029
 40,-0.00005242,-0.00021097,-0.00042657,0.00050481,0.00120256,0.0009816
 8,0.00203176,0.00037756,-0.00774385,0.00044618,-0.00629594,0.04227959,
 -0.03749515,-0.04967782,-0.07179517,0.05542457,0.16190305,0.00016546,0
 .00050620,-0.00013998,0.00007701,-0.00080055,0.00041766,-0.00092801,0.
 00209858,-0.00011138,-0.00249665,-0.00366274,-0.00284502,-0.06253363,0
 .03030228,0.01849305,-0.80193480,-0.15052581,0.04302381,0.90238711,0.0
 0000696,-0.00006033,-0.00003680,-0.00002914,0.00005863,0.00021684,0.00
 065349,0.00058534,-0.00001935,0.00391415,-0.00364520,-0.00208693,0.009
 44887,0.01804473,0.00478837,-0.15371788,-0.09193317,0.00660750,0.17549
 820,0.10446854,-0.00003522,-0.00000342,0.00014186,0.00007301,0.0000321
 4,-0.00004937,0.00010263,-0.00049437,0.00003586,0.00093839,0.00050364,
 0.00108551,0.00950881,-0.00140657,0.01242308,0.04354254,0.00774847,-0.
 05894136,-0.05411011,-0.00486126,0.02793649,0.00004005,0.00009976,0.00
 000242,-0.00011540,-0.00011130,-0.00042784,0.00048826,0.00105451,-0.00
 014879,-0.00368958,0.00161016,0.00354773,0.02126185,0.01781149,-0.0042
 0136,-0.13481774,-0.09327708,-0.00408608,-0.02626987,-0.03292863,-0.00
 044110,0.36090961,-0.00003516,-0.00025993,0.00003127,0.00003286,0.0004
 1643,-0.00010056,0.00099449,-0.00078671,0.00017176,0.00118606,0.002098
 48,-0.00046166,0.01430320,-0.03071958,-0.00889087,-0.08797709,-0.27851
 726,-0.02424968,-0.05672811,-0.01611774,0.00121175,-0.02734976,0.53575
 439,-0.00001306,-0.00001512,0.00004556,0.00008010,0.00002137,-0.000114
 67,0.00000994,-0.00036711,0.00016349,0.00111339,0.00050429,0.00108913,
 0.00048139,-0.00694619,0.00771726,-0.00440408,-0.02208446,-0.04157811,
 -0.00458380,-0.00167248,0.01674287,-0.01801840,0.05723970,0.05032530,-
 0.00002527,-0.00009990,0.00000810,0.00005305,0.00015010,0.00006793,0.0
 0012142,-0.00056699,0.00008972,0.00109921,0.00058572,-0.00093752,-0.00
 275913,-0.00731949,0.00030918,0.03339137,0.01365903,-0.00109050,-0.005
 85558,-0.00426481,0.00019950,-0.21198331,0.12613745,0.02137028,0.57222
 821,0.00002634,0.00008350,-0.00001116,-0.00000856,-0.00013987,0.000129
 37,-0.00032183,0.00028957,-0.00003419,0.00051584,-0.00128758,-0.000740
 26,-0.00311493,-0.00242577,0.00040466,0.02210210,-0.07772207,-0.008748
 14,0.00107750,-0.00553287,-0.00081906,0.10718044,-0.17580752,-0.019725
 35,0.01659336,0.55099098,0.00001217,0.00002333,-0.00002362,0.00002028,
 -0.00008198,-0.00007141,-0.00017577,0.00004058,-0.00004006,0.00042519,
 -0.00058055,0.00060435,-0.00059897,-0.00014514,0.00247880,0.00082788,-
 0.00859553,-0.00787768,0.00044823,-0.00044110,-0.00015083,0.01893340,-
 0.01973810,-0.04599270,0.00018279,0.00197219,0.52812633,0.00000116,0.0
 0000349,-0.00000276,0.00000089,-0.00000776,-0.00000103,-0.00001807,0.0
 0001132,-0.00000235,0.00004333,-0.00006598,0.00001468,-0.00009541,-0.0
 0014840,0.00009018,0.00004595,0.00050639,-0.00087152,-0.00001576,0.000
 25294,-0.00020369,-0.00932568,0.00699660,-0.00857329,-0.13315841,0.007
 37894,-0.12289486,0.14697409,-0.00000372,-0.00000896,0.00000072,-0.000
 00143,0.00002087,0.00000386,0.00004023,-0.00003338,0.00000490,-0.00009
 652,0.00016420,-0.00006588,0.00003405,0.00014709,-0.00026022,0.0026819
 1,-0.00012060,0.00226900,-0.00115650,-0.00115197,0.00016324,0.01673622
 ,-0.00412032,0.01334247,0.00365512,-0.04172160,0.00755846,-0.01034536,
 0.04384220,-0.00000438,-0.00001188,0.00000200,0.00000244,0.00002385,-0
 .00000042,0.00004145,-0.00005683,0.00000757,-0.00001197,0.00018003,-0.
 00003530,0.00015726,-0.00020682,-0.00017646,-0.00060580,0.00184548,0.0
 0109917,-0.00000847,0.00039096,-0.00017093,0.00342674,-0.00072390,0.00
 733997,-0.12683745,0.01163767,-0.20834404,0.14135475,-0.01158341,0.230
 25291,0.00000077,0.00000376,0.00000184,-0.00000281,-0.00000473,0.00000
 737,-0.00000951,0.00002266,-0.00000150,-0.00000083,-0.00005187,-0.0000
 4979,-0.00004896,-0.00009508,-0.00012906,0.00012370,0.00004319,0.00107
 078,0.00002355,0.00016616,0.00017581,-0.00841387,0.00488696,0.01110173
 ,-0.10990618,-0.01710199,0.11225131,0.00847851,0.00234106,-0.01077720,
 0.12054362,-0.00000270,-0.00000819,0.00000182,0.00000549,0.00001014,-0
 .00001482,0.00001337,-0.00005339,0.00000212,0.00001388,0.00010100,0.00
 008790,-0.00006214,0.00007989,0.00043697,0.00230296,0.00091570,-0.0026
 5580,-0.00120591,-0.00126686,-0.00023605,0.01541213,-0.00067391,-0.016
 53950,-0.02101183,-0.04553479,0.03088984,0.00026702,0.00321261,0.00196
 148,0.01776997,0.04778834,0.00000287,0.00000887,-0.00000164,-0.0000030
 5,-0.00001525,0.00000501,-0.00002451,0.00004473,-0.00000460,-0.0000265
 7,-0.00011163,-0.00000836,-0.00014148,0.00025340,0.00003269,0.00116790
 ,-0.00187961,-0.00007480,-0.00027930,-0.00067452,-0.00034430,0.0015133
 0,-0.00161691,0.00311338,0.11519366,0.02654183,-0.22749733,0.00747656,
 0.00468549,-0.02809848,-0.12977589,-0.03097892,0.25261302,0.00000746,0
 .00002977,-0.00000207,-0.00001883,-0.00004940,-0.00002105,-0.00004882,
 0.00018446,-0.00002776,-0.00027818,-0.00025471,0.00029739,0.00100214,0
 .00177913,-0.00018564,-0.00600393,0.00210234,0.00073821,0.00149244,-0.
 00013035,-0.00014081,0.01536388,0.01258565,0.00075973,-0.14323132,-0.1
 3447551,-0.00947307,-0.01293831,-0.01386447,-0.00673134,-0.01079624,-0
 .01349549,0.00489843,0.15540889,-0.00000378,-0.00001448,0.00000100,0.0
 0001161,0.00002362,0.00001884,0.00001149,-0.00010414,0.00001594,0.0002
 1250,0.00009156,-0.00021126,-0.00074866,-0.00129184,0.00011539,0.00425
 073,-0.00303269,-0.00069736,-0.00049056,0.00022835,0.00006432,-0.00853
 234,-0.02829617,-0.00290284,-0.12749478,-0.20085885,-0.01086514,-0.004
 83350,-0.00029109,-0.00347005,-0.00795715,-0.00462264,0.00373956,0.145
 58693,0.23818516,-0.00000058,-0.00000316,0.00000098,0.00000131,0.00000
 441,0.00000321,0.00000281,-0.00001739,-0.00000103,0.00003304,0.0000110
 9,-0.00003678,-0.00011342,-0.00020539,0.00000175,0.00076090,-0.0005052
 7,0.00071204,-0.00012558,0.00002190,0.00005443,-0.00150817,-0.00392859
 ,0.00200843,-0.00866186,-0.01054048,-0.04158739,-0.01640483,-0.0160658
 8,-0.00185874,0.01611447,0.01704766,0.00030275,0.00990365,0.01418257,0
 .04038653,-0.04478015,-0.03461980,0.00326927,-0.00401584,-0.02690311,0
 .00222358,-0.00241006,-0.00024658,-0.00052081,0.00024090,0.00060230,-0
 .00004550,0.00008589,-0.00015976,0.00005481,-0.00015313,-0.00003020,-0
 .00000823,0.00008157,0.00005849,0.00000095,0.00001650,0.00002610,0.000
 00531,0.00000284,-0.00000276,0.00000045,-0.00000001,-0.00000042,0.0000
 0010,-0.00000013,-0.00000005,-0.00000014,-0.00000096,0.00000020,0.0000
 0003,0.05036513,-0.04033646,-0.31823674,0.02714400,-0.00496993,-0.0073
 4366,0.00127838,-0.00056738,0.00021358,0.00080817,-0.00006162,-0.00050
 333,0.00008286,-0.00015087,0.00057591,-0.00021466,0.00035860,-0.000292
 82,0.00002546,-0.00018274,0.00002177,-0.00000601,-0.00002475,0.0001123
 4,0.00000404,0.00003651,-0.00003187,-0.00001001,-0.00000124,0.00000315
 ,0.00000444,-0.00000124,0.00000245,-0.00000328,-0.00001066,0.00000502,
 0.00000119,0.04461426,0.34112908,0.00391046,0.02745479,-0.04072045,-0.
 00010917,0.00006648,0.00721158,-0.00053217,0.00089498,0.00816073,0.000
 06850,-0.00008973,-0.00045152,0.00001739,0.00010071,-0.00026924,-0.000
 02983,-0.00003451,-0.00008100,0.00002155,-0.00000988,-0.00002818,0.000
 03617,-0.00000772,-0.00000229,-0.00001062,-0.00000469,0.00001446,0.000
 00114,-0.00000091,-0.00000096,-0.00000113,0.00000053,0.00000040,0.0000
 0311,-0.00000226,-0.00000061,-0.00315479,-0.03109474,0.02412567,-0.225
 00822,0.12362565,-0.02227151,-0.02292873,0.01028736,-0.00279169,-0.001
 46694,-0.00048677,0.00029839,0.00014287,-0.00218390,0.00025458,-0.0002
 2209,0.00061841,-0.00017059,0.00062785,-0.00031510,0.00000154,-0.00034
 562,-0.00002050,0.00000730,-0.00007206,0.00010052,0.00000651,0.0000466
 1,-0.00002919,-0.00001196,-0.00000109,0.00000395,0.00000535,-0.0000008
 0,0.00000341,-0.00000402,-0.00001327,0.00000733,0.00000163,0.00208229,
 0.00221533,-0.00046534,0.24931816,0.12537331,-0.12358732,0.01501413,-0
 .00998521,0.01136227,-0.00058012,-0.00015863,-0.00079097,-0.00055339,-
 0.00379595,-0.00291026,0.00003060,0.00021105,-0.00052752,0.00023234,-0
 .00048813,0.00002714,-0.00003972,0.00025622,0.00014851,-0.00000569,0.0
 0004284,0.00003419,0.00001135,0.00000064,-0.00000034,0.00000840,0.0000
 0046,-0.00000167,-0.00000104,-0.00000054,0.00000009,0.00000040,-0.0000
 0074,-0.00000030,-0.00000018,0.01807812,-0.01580836,0.00327237,-0.1315
 3989,0.12693559,-0.02249591,0.01492636,-0.04434774,-0.00065388,0.00053
 981,0.01100588,0.00030031,-0.00064146,-0.00629224,0.00033528,0.0002884
 5,0.00063338,0.00002340,-0.00007926,0.00014425,-0.00007319,0.00006951,
 0.00024747,0.00002856,0.00002676,-0.00011436,-0.00002819,0.00000188,-0
 .00003636,0.00000799,0.00000150,0.00001068,0.00000129,0.00000080,0.000
 00011,-0.00000129,-0.00000072,0.00000002,-0.00000252,0.00000156,-0.000
 00019,-0.00212750,0.00247615,0.00649215,0.02531168,-0.01764649,0.02580
 920,-0.02182130,0.00985331,-0.00262617,-0.21722924,0.12226013,-0.02140
 758,0.00510795,-0.00030461,-0.00006627,-0.00038371,-0.00065111,-0.0000
 1374,0.00029579,-0.00037010,0.00009942,-0.00027222,0.00020682,0.000018
 60,0.00012605,-0.00003525,-0.00000118,0.00002993,-0.00010663,-0.000010
 90,-0.00003565,0.00002479,0.00000566,0.00000102,-0.00000218,-0.0000037
 1,0.00000133,-0.00000248,0.00000294,0.00001145,-0.00000561,-0.00000118
 ,-0.00137711,-0.00097799,0.00026999,-0.00109045,-0.00114392,-0.0003109
 4,0.23621527,-0.00975587,0.00892478,-0.00039905,0.12328833,-0.12193815
 ,0.01441433,0.01802060,-0.01869624,0.00348482,-0.00124200,-0.00260320,
 0.00042704,0.00047679,0.00021839,-0.00021195,-0.00009282,-0.00019159,0
 .00009869,0.00003486,0.00003911,-0.00001843,0.00005134,0.00003873,-0.0
 0000975,-0.00000588,-0.00000948,-0.00000659,-0.00000060,0.00000093,0.0
 0000073,-0.00000012,-0.00000085,-0.00000020,0.00000126,-0.00000165,-0.
 00000018,-0.00082696,0.00005675,-0.00052993,-0.00106494,-0.00083273,0.
 00079553,-0.12834481,0.13712304,-0.00062720,0.00058723,0.00978703,-0.0
 2148434,0.01435535,-0.04529573,-0.00196663,0.00262200,0.00634805,0.000
 07098,0.00027151,0.00090447,0.00000354,0.00001212,-0.00029380,-0.00003
 279,0.00000725,-0.00001831,0.00000891,-0.00000718,-0.00002825,0.000011
 87,-0.00001453,-0.00001605,-0.00000490,-0.00000357,0.00001347,0.000000
 72,-0.00000042,-0.00000068,-0.00000075,0.00000096,0.00000008,0.0000014
 6,-0.00000112,0.00000009,0.00025820,-0.00054516,-0.00461815,-0.0003259
 4,0.00079962,0.00732171,0.02403024,-0.01832262,0.02550432,0.00001517,0
 .00003450,0.00000511,-0.00016672,-0.00010762,0.00005261,0.00109101,-0.
 00091530,-0.00006363,0.00135777,-0.00346986,0.00183193,-0.33472945,-0.
 09805106,-0.07055855,-0.01517970,-0.00378478,-0.00190638,-0.00223260,0
 .00162217,0.00035878,-0.00302064,0.00545103,0.00071084,0.00001397,0.00
 008622,0.00003200,0.00000525,-0.00002543,-0.00000583,0.00000521,-0.000
 01280,-0.00000230,0.00004416,-0.00002006,-0.00000282,-0.00000699,-0.00
 002642,-0.00001074,-0.00002680,0.00002411,-0.00000471,0.00003034,-0.00
 000227,-0.00000026,0.35332971,0.00006185,-0.00003682,-0.00001126,-0.00
 002113,-0.00006117,0.00022420,-0.00037633,-0.00372708,0.00023599,-0.02
 585622,-0.00820117,-0.00547142,-0.09604250,-0.08834904,-0.02577504,0.0
 1539340,0.01191868,0.00723292,0.00295785,-0.00205534,-0.00173067,0.002
 22298,-0.00377874,-0.00094940,-0.00016643,-0.00027290,-0.00004969,-0.0
 0001707,0.00007037,0.00000736,-0.00002195,0.00005668,0.00001246,0.0000
 2749,-0.00002855,-0.00000481,0.00002521,-0.00002516,0.00000475,0.00000
 544,0.00005947,-0.00000424,0.00001090,-0.00001046,-0.00000814,0.099904
 31,0.09845438,-0.00014102,-0.00006537,-0.00010845,0.00021650,0.0005920
 7,0.00013470,0.00118157,-0.00124748,0.00041369,0.00643218,0.00714810,-
 0.00101099,-0.09264063,-0.02955489,-0.02847427,0.01450833,-0.00235824,
 -0.00160468,-0.00055378,-0.00228077,0.00199641,0.00120698,0.00102340,-
 0.00069701,0.00011923,0.00001108,0.00023492,0.00001030,-0.00005397,-0.
 00001388,0.00002175,-0.00001074,-0.00003345,-0.00001757,0.00001462,0.0
 0001756,-0.00000351,0.00005455,0.00002864,0.00004720,-0.00004295,0.000
 03572,-0.00003668,0.00004577,0.00007287,0.06997781,0.02576312,0.027773
 62,0.00108369,0.00052942,-0.00002997,-0.00137974,0.00150883,-0.0000095
 8,-0.01917149,-0.00058649,-0.00131476,-0.26400336,-0.07283103,-0.00244
 263,0.00039822,-0.00303132,0.00046752,0.00398718,-0.00075025,-0.000111
 82,-0.00219270,-0.00048257,0.00001554,-0.00047252,-0.00022794,-0.00001
 833,0.00007993,0.00001439,-0.00000434,0.00000115,0.00000951,0.00000769
 ,0.00000107,0.00001041,-0.00000578,-0.00002855,0.00002038,0.00000391,-
 0.00016743,0.00010374,-0.00002502,-0.00103932,0.00309059,-0.00029885,-
 0.00005406,-0.00008254,0.00000104,-0.00005338,0.00061403,-0.00015677,0
 .28347247,0.00236817,-0.00412533,0.00056535,0.00100846,-0.00107172,-0.
 00031225,0.01623051,0.00684744,0.00125872,-0.06935472,-0.05886010,-0.0
 0156882,-0.02105444,-0.00847469,0.00067521,-0.00195940,-0.00451921,-0.
 00075176,0.00219893,-0.00163445,-0.00012607,0.00007239,0.00073631,0.00
 010547,0.00011893,-0.00002299,0.00001676,0.00000333,-0.00001174,0.0000
 0282,0.00000142,-0.00000646,-0.00000709,-0.00002127,0.00001283,0.00000
 283,-0.00025028,0.00016444,0.00003565,-0.00132809,0.00576019,-0.000770
 70,-0.00004903,0.00005342,0.00001196,-0.00018276,-0.00279119,0.0011720
 0,0.07148808,0.06935006,-0.00015813,0.00043740,0.00027637,0.00001595,-
 0.00038311,-0.00432631,-0.00312257,0.00062187,0.01080375,-0.00330379,-
 0.00264913,-0.04279458,0.00347426,0.00215367,0.00487557,-0.00094741,-0
 .00007462,0.00088693,0.00038681,0.00015025,-0.00050218,-0.00000653,0.0
 0004466,-0.00008307,0.00003083,-0.00001810,0.00004395,0.00000269,0.000
 00476,0.00000085,-0.00000487,0.00000106,-0.00000171,-0.00001196,0.0000
 0567,-0.00000084,0.00000190,0.00001578,0.00037599,0.00012625,-0.000500
 78,-0.00109072,0.00000027,-0.00000641,0.00013068,-0.00042125,0.0004766
 4,0.00177965,0.00425516,-0.00106121,0.02400183,0.00013266,0.00017585,-
 0.00004027,-0.00243478,-0.00542213,0.00019952,-0.27796879,-0.07525063,
 -0.00281587,-0.02035004,-0.00025574,-0.00134602,-0.00086728,0.00098306
 ,0.00010079,-0.00099908,0.00064964,-0.00004214,0.00045555,-0.00001219,
 0.00000785,0.00006486,-0.00028329,-0.00001857,-0.00008197,0.00005499,0
 .00002009,0.00000286,-0.00000610,-0.00001010,0.00000285,-0.00000508,0.
 00000793,0.00002847,-0.00001440,-0.00000312,0.00003762,-0.00001820,0.0
 0001052,-0.00000086,0.00003559,-0.00001172,0.00044604,-0.00045446,0.00
 005569,-0.00047389,0.00127728,-0.00017307,-0.00045893,0.00071007,-0.00
 031800,0.30246628,0.00044961,-0.00282954,0.00037584,-0.02373404,-0.011
 11830,0.00083906,-0.07478616,-0.06249175,-0.00129511,0.01790936,0.0068
 7817,0.00123009,0.00270539,-0.00156309,0.00019197,0.00041265,0.0002520
 3,0.00004850,-0.00017564,-0.00019583,-0.00001627,-0.00006670,-0.000106
 26,-0.00001684,-0.00000753,-0.00000021,0.00000499,-0.00000020,0.000001
 24,-0.00000055,-0.00000029,0.00000169,0.00000052,0.00000432,-0.0000021
 0,-0.00000015,-0.00036443,-0.00004141,-0.00005570,0.00010079,0.0001329
 9,0.00001464,-0.00036189,-0.00216926,0.00023462,-0.00052407,-0.0012191
 5,-0.00021020,0.00060255,-0.00140503,0.00078135,0.07783631,0.07587656,
 -0.00005606,0.00034976,0.00062187,0.00191732,0.00151436,0.00643449,-0.
 00283031,-0.00110647,-0.04114003,-0.00308872,-0.00010250,0.01050584,-0
 .00037120,0.00104235,-0.00321069,0.00020758,-0.00042442,-0.00007072,-0
 .00007272,-0.00011344,-0.00008614,0.00018985,0.00001026,-0.00002225,-0
 .00003608,-0.00005414,0.00005287,0.00000107,-0.00000306,-0.00000198,-0
 .00000302,0.00000631,-0.00000192,0.00001180,-0.00000980,-0.00000025,0.
 00004582,-0.00002107,-0.00023575,-0.00001944,0.00000136,0.00018297,0.0
 0005115,0.00023830,0.00018995,0.00000918,0.00004779,-0.00054351,-0.000
 33301,0.00075114,0.00562567,0.00437660,-0.00212690,0.02170148\\0.00000
 096,0.00001387,0.00000394,-0.00001971,0.00000544,-0.00000665,-0.000005
 27,-0.00001462,0.00000508,0.00000651,-0.00000327,0.00000053,0.00000861
 ,-0.00000727,0.00000079,-0.00001760,-0.00000269,0.00000721,0.00000727,
 0.00000335,-0.00000344,0.00000676,-0.00000132,-0.00000373,-0.00000364,
 0.00000564,0.00000176,0.00000074,-0.00000298,0.00000101,-0.00000027,-0
 .00000050,-0.00000158,0.00000082,-0.00000304,0.00000092,0.00000745,-0.
 00000012,-0.00000029,0.00000745,-0.00000142,-0.00000163,0.00000180,0.0
 0000326,-0.00000017,-0.00000387,-0.00000199,-0.00000311,0.00000577,0.0
 0000349,0.00000007,-0.00000380,0.00000416,-0.00000072\\\@


 Happiness is a conscious choice, not an automatic response.
 -- Mildred Barthel
 Job cpu time:  0 days  0 hours  0 minutes  3.7 seconds.
 File lengths (MBytes):  RWF=     13 Int=      0 D2E=      0 Chk=      6 Scr=      1
 Normal termination of Gaussian 03 at Sun Dec 16 16:02:04 2012.
