 Entering Gaussian System, Link 0=g03
 Input=produkt.com
 Output=produkt.log
 Initial command:
 /software/ncbr/softrepo/secret/gaussian/03.E1/x86_64/node/l1.exe /scratch/xdanek7/QM/06_F_analyza_TS/produkt/Gau-16431.inp -scrdir=/scratch/xdanek7/QM/06_F_analyza_TS/produkt/
 Entering Link 1 = /software/ncbr/softrepo/secret/gaussian/03.E1/x86_64/node/l1.exe PID=     16433.
  
 Copyright (c) 1988,1990,1992,1993,1995,1998,2003,2004,2007, Gaussian, Inc.
                  All Rights Reserved.
  
 This is the Gaussian(R) 03 program.  It is based on the
 the Gaussian(R) 98 system (copyright 1998, Gaussian, Inc.),
 the Gaussian(R) 94 system (copyright 1995, Gaussian, Inc.),
 the Gaussian 92(TM) system (copyright 1992, Gaussian, Inc.),
 the Gaussian 90(TM) system (copyright 1990, Gaussian, Inc.),
 the Gaussian 88(TM) system (copyright 1988, Gaussian, Inc.),
 the Gaussian 86(TM) system (copyright 1986, Carnegie Mellon
 University), and the Gaussian 82(TM) system (copyright 1983,
 Carnegie Mellon University). Gaussian is a federally registered
 trademark of Gaussian, Inc.
  
 This software contains proprietary and confidential information,
 including trade secrets, belonging to Gaussian, Inc.
  
 This software is provided under written license and may be
 used, copied, transmitted, or stored only in accord with that
 written license.
  
 The following legend is applicable only to US Government
 contracts under FAR:
  
                    RESTRICTED RIGHTS LEGEND
  
 Use, reproduction and disclosure by the US Government is
 subject to restrictions as set forth in subparagraphs (a)
 and (c) of the Commercial Computer Software - Restricted
 Rights clause in FAR 52.227-19.
  
 Gaussian, Inc.
 340 Quinnipiac St., Bldg. 40, Wallingford CT 06492
  
  
 ---------------------------------------------------------------
 Warning -- This program may not be used in any manner that
 competes with the business of Gaussian, Inc. or will provide
 assistance to any competitor of Gaussian, Inc.  The licensee
 of this program is prohibited from giving any competitor of
 Gaussian, Inc. access to this program.  By using this program,
 the user acknowledges that Gaussian, Inc. is engaged in the
 business of creating and licensing software in the field of
 computational chemistry and represents and warrants to the
 licensee that it is not a competitor of Gaussian, Inc. and that
 it will not use this program in any manner prohibited above.
 ---------------------------------------------------------------
  

 Cite this work as:
 Gaussian 03, Revision E.01,
 M. J. Frisch, G. W. Trucks, H. B. Schlegel, G. E. Scuseria, 
 M. A. Robb, J. R. Cheeseman, J. A. Montgomery, Jr., T. Vreven, 
 K. N. Kudin, J. C. Burant, J. M. Millam, S. S. Iyengar, J. Tomasi, 
 V. Barone, B. Mennucci, M. Cossi, G. Scalmani, N. Rega, 
 G. A. Petersson, H. Nakatsuji, M. Hada, M. Ehara, K. Toyota, 
 R. Fukuda, J. Hasegawa, M. Ishida, T. Nakajima, Y. Honda, O. Kitao, 
 H. Nakai, M. Klene, X. Li, J. E. Knox, H. P. Hratchian, J. B. Cross, 
 V. Bakken, C. Adamo, J. Jaramillo, R. Gomperts, R. E. Stratmann, 
 O. Yazyev, A. J. Austin, R. Cammi, C. Pomelli, J. W. Ochterski, 
 P. Y. Ayala, K. Morokuma, G. A. Voth, P. Salvador, J. J. Dannenberg, 
 V. G. Zakrzewski, S. Dapprich, A. D. Daniels, M. C. Strain, 
 O. Farkas, D. K. Malick, A. D. Rabuck, K. Raghavachari, 
 J. B. Foresman, J. V. Ortiz, Q. Cui, A. G. Baboul, S. Clifford, 
 J. Cioslowski, B. B. Stefanov, G. Liu, A. Liashenko, P. Piskorz, 
 I. Komaromi, R. L. Martin, D. J. Fox, T. Keith, M. A. Al-Laham, 
 C. Y. Peng, A. Nanayakkara, M. Challacombe, P. M. W. Gill, 
 B. Johnson, W. Chen, M. W. Wong, C. Gonzalez, and J. A. Pople, 
 Gaussian, Inc., Wallingford CT, 2004.
 
 ******************************************
 Gaussian 03:  EM64L-G03RevE.01 11-Sep-2007
                16-Dec-2012 
 ******************************************
 -----------------
 # PM3 Freq NoSymm
 -----------------
 1/10=4,30=1,38=1/1,3;
 2/15=1,17=6,18=5,40=1/2;
 3/5=2,11=9,12=1,16=1,25=1,30=1/1;
 4/5=3,11=1,20=7,22=2,24=3,35=1/1,2;
 6/7=2,8=2,9=2,10=2/1;
 7/8=1,25=1,30=1/16;
 1/10=4,30=1/3;
 99//99;
 -------
 produkt
 -------
 Symbolic Z-matrix:
 Charge =  0 Multiplicity = 1
 C                    -2.10389   3.0041    0.6562 
 C                    -2.82978   2.94952  -0.55905 
 C                    -2.9758    1.84273  -1.39341 
 C                    -2.70463   0.51177  -1.1664 
 N                    -2.5672   -0.09581   0.07652 
 C                    -2.20984  -1.48138   0.17245 
 O                    -2.064    -2.25635  -0.75676 
 O                    -2.11753  -1.83824   1.48262 
 C                    -1.61439  -3.12618   1.77659 
 H                    -0.59436  -3.25189   1.39551 
 H                    -2.26305  -3.91528   1.38233 
 H                    -1.62117  -3.12873   2.86943 
 H                    -2.37669   0.48892   0.86925 
 C                    -0.45428   3.17035   0.25039 
 C                     0.03392   2.06192  -0.47973 
 H                    -0.00054   3.29767   1.2484 
 H                    -0.40449   4.12239  -0.30156 
 C                     0.57913   0.89927   0.18396 
 H                     0.11046   2.12848  -1.57295 
 O                     0.33843   0.59821   1.35851 
 N                     1.50036   0.04647  -0.53919 
 H                    -2.72446  -0.17786  -2.02742 
 H                    -2.13549   2.12054   1.3167 
 H                    -2.33395   3.89236   1.26689 
 H                    -3.20859   3.90236  -0.95474 
 H                    -3.3124    2.06937  -2.41598 
 C                     1.30453  -0.09357  -1.99814 
 H                     2.25375  -0.39492  -2.46046 
 H                     0.99971   0.86996  -2.43664 
 H                     0.54294  -0.84564  -2.25424 
 C                     1.91479  -1.21697   0.10936 
 H                     2.30269  -1.00718   1.11467 
 H                     2.71814  -1.67972  -0.47897 
 H                     1.09126  -1.94261   0.2023 
 

 GradGradGradGradGradGradGradGradGradGradGradGradGradGradGradGradGradGrad
 Berny optimization.
 Initialization pass.
 Trust Radius=3.00D-01 FncErr=1.00D-07 GrdErr=1.00D-07
 Number of steps in this run=   2 maximum allowed number of steps=   2.
 GradGradGradGradGradGradGradGradGradGradGradGradGradGradGradGradGradGrad

                          Input orientation:                          
 ---------------------------------------------------------------------
 Center     Atomic     Atomic              Coordinates (Angstroms)
 Number     Number      Type              X           Y           Z
 ---------------------------------------------------------------------
    1          6             0       -2.103889    3.004098    0.656200
    2          6             0       -2.829781    2.949516   -0.559054
    3          6             0       -2.975804    1.842728   -1.393406
    4          6             0       -2.704629    0.511774   -1.166396
    5          7             0       -2.567204   -0.095810    0.076523
    6          6             0       -2.209837   -1.481384    0.172451
    7          8             0       -2.063998   -2.256354   -0.756764
    8          8             0       -2.117533   -1.838235    1.482618
    9          6             0       -1.614394   -3.126181    1.776593
   10          1             0       -0.594358   -3.251886    1.395506
   11          1             0       -2.263048   -3.915275    1.382334
   12          1             0       -1.621165   -3.128725    2.869431
   13          1             0       -2.376692    0.488920    0.869245
   14          6             0       -0.454277    3.170350    0.250389
   15          6             0        0.033917    2.061917   -0.479729
   16          1             0       -0.000537    3.297669    1.248399
   17          1             0       -0.404485    4.122385   -0.301564
   18          6             0        0.579126    0.899272    0.183959
   19          1             0        0.110462    2.128481   -1.572948
   20          8             0        0.338432    0.598211    1.358512
   21          7             0        1.500362    0.046467   -0.539192
   22          1             0       -2.724462   -0.177860   -2.027424
   23          1             0       -2.135492    2.120542    1.316703
   24          1             0       -2.333951    3.892364    1.266887
   25          1             0       -3.208588    3.902357   -0.954736
   26          1             0       -3.312396    2.069367   -2.415977
   27          6             0        1.304525   -0.093570   -1.998141
   28          1             0        2.253748   -0.394917   -2.460457
   29          1             0        0.999706    0.869958   -2.436643
   30          1             0        0.542938   -0.845638   -2.254243
   31          6             0        1.914793   -1.216971    0.109364
   32          1             0        2.302685   -1.007181    1.114669
   33          1             0        2.718141   -1.679720   -0.478965
   34          1             0        1.091263   -1.942609    0.202295
 ---------------------------------------------------------------------
                    Distance matrix (angstroms):
                    1          2          3          4          5
     1  C    0.000000
     2  C    1.416595   0.000000
     3  C    2.511952   1.393716   0.000000
     4  C    3.145540   2.515375   1.377138   0.000000
     5  N    3.187494   3.122005   2.466896   1.390285   0.000000
     6  C    4.512736   4.533465   3.753443   2.451532   1.434130
     7  O    5.447056   5.265605   4.247255   2.870669   2.369712
     8  O    4.912366   5.253407   4.749488   3.589498   2.283715
     9  C    6.251016   6.621669   6.049164   4.804635   3.602948
    10  H    6.477854   6.875668   6.277293   5.018139   3.948753
    11  H    6.959190   7.156503   6.431746   5.127356   4.047958
    12  H    6.537808   7.082392   6.687464   5.542114   4.230118
    13  H    2.538884   2.880948   2.703945   2.062013   1.003301
    14  C    1.706910   2.519322   3.289793   3.760238   3.893904
    15  C    2.597740   2.999148   3.152978   3.220883   3.425059
    16  H    2.204761   3.375310   4.236532   4.572150   4.413250
    17  H    2.248522   2.706286   3.605640   4.367506   4.755362
    18  C    3.442655   4.046754   4.001964   3.571647   3.301685
    19  H    3.261772   3.216692   3.104662   3.271661   3.852028
    20  O    3.499495   4.386715   4.483975   3.955105   3.250828
    21  N    4.813228   5.213274   4.898193   4.276897   4.116363
    22  H    4.208540   3.456542   2.132587   1.103339   2.111411
    23  H    1.103601   2.165110   2.850964   3.012944   2.576167
    24  H    1.102218   2.113970   3.419085   4.181705   4.168562
    25  H    2.149964   1.099075   2.118653   3.434360   4.178541
    26  H    3.431105   2.110863   1.100141   2.087326   3.384650
    27  C    5.315859   5.331400   4.736684   4.139028   4.392553
    28  H    6.344750   6.375173   5.787389   5.204055   5.455943
    29  H    4.873657   4.744984   4.223660   3.932419   4.468955
    30  H    5.504256   5.352765   4.511086   3.684110   3.958244
    31  C    5.853739   6.349597   5.961377   5.094623   4.620214
    32  H    5.976491   6.693206   6.501913   5.708211   5.062032
    33  H    6.817531   7.226042   6.757577   5.889112   5.545467
    34  H    5.906347   6.315625   5.780664   4.722934   4.100106
                    6          7          8          9         10
     6  C    0.000000
     7  O    1.218724   0.000000
     8  O    1.361029   2.278710   0.000000
     9  C    2.373432   2.715997   1.413639   0.000000
    10  H    2.690783   2.789837   2.079918   1.096131   0.000000
    11  H    2.718543   2.714292   2.084545   1.094925   1.795769
    12  H    3.214649   3.755852   1.958315   1.092862   1.800543
    13  H    2.096535   3.205965   2.420545   3.804384   4.176996
    14  C    4.972594   5.749320   5.419477   6.581905   6.525031
    15  C    4.244379   4.808894   4.867312   5.892731   5.669898
    16  H    5.373827   6.255056   5.560040   6.644499   6.578065
    17  H    5.906455   6.606777   6.453435   7.637036   7.569410
    18  C    3.666875   4.222445   4.056159   4.853070   4.480739
    19  H    4.632638   4.961976   5.480445   6.465758   6.185211
    20  O    3.496445   4.288893   3.461710   4.226040   3.961655
    21  N    4.075088   4.249116   4.552909   5.013009   4.360051
    22  H    2.608345   2.524069   3.930089   4.939169   5.069855
    23  H    3.780041   4.843717   3.962293   5.292556   5.589659
    24  H    5.485468   6.478794   5.738740   7.073722   7.354117
    25  H    5.590413   6.267296   6.331310   7.707267   7.971263
    26  H    4.530279   4.798265   5.647663   6.888728   7.087374
    27  C    4.357549   4.191133   5.183630   5.653798   5.009746
    28  H    5.294923   5.001045   6.061279   6.354126   5.580540
    29  H    4.757872   4.688507   5.693162   6.368203   5.849445
    30  H    3.724351   3.320945   4.693345   5.109070   4.517094
    31  C    4.133578   4.202532   4.304817   4.345100   3.477194
    32  H    4.634166   4.912292   4.512689   4.502423   3.675653
    33  H    4.974801   4.824783   5.220793   5.094178   4.118009
    34  H    3.333299   3.312688   3.456370   3.346616   2.445256
                   11         12         13         14         15
    11  H    0.000000
    12  H    1.800592   0.000000
    13  H    4.435438   4.202252   0.000000
    14  C    7.399935   6.920936   3.356893   0.000000
    15  C    6.668594   6.395227   3.178850   1.414224   0.000000
    16  H    7.560652   6.822955   3.698505   1.103682   2.124782
    17  H    8.419842   8.007129   4.296797   1.101591   2.114112
    18  C    5.717860   5.317687   3.061840   2.496023   1.445503
    19  H    7.134019   7.097287   3.852065   2.174622   1.097915
    20  O    5.209589   4.473583   2.761019   2.910708   2.369450
    21  N    5.792315   5.607538   4.148615   3.768647   2.493198
    22  H    5.080120   5.822719   2.992696   4.642487   3.875644
    23  H    6.037521   5.498209   1.708972   2.250690   2.817258
    24  H    7.808814   7.236843   3.426861   2.255603   3.465256
    25  H    8.214092   8.159674   3.958599   3.094251   3.758549
    26  H    7.165489   7.603681   3.763780   4.060852   3.866125
    27  C    6.225803   6.439339   4.702399   4.336179   2.926798
    28  H    6.896478   7.134169   5.771400   5.233853   3.858363
    29  H    6.937478   7.142328   4.740691   3.824397   2.486569
    30  H    5.524574   6.012309   4.479002   4.836918   3.444108
    31  C    5.133776   4.876041   4.680206   4.988082   3.825681
    32  H    5.419831   4.793406   4.918854   5.079329   4.136276
    33  H    5.768395   5.669299   5.698947   5.841179   4.604879
    34  H    4.066363   3.984690   4.287641   5.341662   4.197543
                   16         17         18         19         20
    16  H    0.000000
    17  H    1.801587   0.000000
    18  C    2.687257   3.404656   0.000000
    19  H    3.056030   2.420174   2.194840   0.000000
    20  O    2.722884   3.965801   1.236182   3.314688   0.000000
    21  N    4.002311   4.505332   1.448758   2.708368   2.292550
    22  H    5.498189   5.181987   4.118752   3.682737   4.631217
    23  H    2.438919   3.102023   3.184927   3.659844   2.905089
    24  H    2.408075   2.497156   4.314783   4.141389   4.242814
    25  H    3.938406   2.887566   4.966077   3.813780   5.371205
    26  H    5.089675   4.140238   4.824182   3.525642   5.453404
    27  C    4.872752   4.855241   2.504695   2.558141   3.560761
    28  H    5.698474   5.668601   3.387067   3.427665   4.386258
    29  H    4.524798   4.136254   2.654299   1.766523   3.861908
    30  H    5.452601   5.421422   2.998475   3.081653   3.895962
    31  C    5.034666   5.835806   2.503608   4.156661   2.709275
    32  H    4.884102   5.970505   2.733393   4.675629   2.548535
    33  H    5.928693   6.591410   3.415560   4.743330   3.772043
    34  H    5.454070   6.267000   2.887717   4.548322   2.891256
                   21         22         23         24         25
    21  N    0.000000
    22  H    4.484896   0.000000
    23  H    4.578817   4.100332   0.000000
    24  H    5.723181   5.250877   1.783598   0.000000
    25  H    6.100391   4.246553   3.079908   2.387614   0.000000
    26  H    5.547710   2.355137   3.914157   4.224235   2.346456
    27  C    1.478680   4.029975   5.265377   6.307661   6.117542
    28  H    2.110372   5.001720   6.313470   7.302113   7.111320
    29  H    2.128172   3.890348   5.047874   5.827893   5.394556
    30  H    2.157293   3.342645   5.359465   6.566849   6.189194
    31  C    1.479410   5.212322   5.385301   6.745146   7.320441
    32  H    2.118762   5.986044   5.433312   6.747378   7.665516
    33  H    2.113370   5.854506   6.420605   7.721383   8.155493
    34  H    2.161848   4.758754   5.306887   6.849260   7.347861
                   26         27         28         29         30
    26  H    0.000000
    27  C    5.115549   0.000000
    28  H    6.087416   1.097985   0.000000
    29  H    4.475850   1.101628   1.781319   0.000000
    30  H    4.836012   1.100550   1.781164   1.784706   0.000000
    31  C    6.670897   2.464961   2.719309   3.416842   2.757991
    32  H    7.311617   3.394200   3.627504   4.222940   3.804257
    33  H    7.360370   2.611911   2.406801   3.645049   2.928961
    34  H    6.507189   2.882073   3.291955   3.857837   2.745648
                   31         32         33         34
    31  C    0.000000
    32  H    1.097775   0.000000
    33  H    1.098014   1.778927   0.000000
    34  H    1.101539   1.781852   1.783244   0.000000
 Symmetry turned off by external request.
 Stoichiometry    C11H18N2O3
 Framework group  C1[X(C11H18N2O3)]
 Deg. of freedom    96
 Full point group                 C1
 Rotational constants (GHZ):      0.5832728      0.4537584      0.3361839
 Standard basis: VSTO-3G (5D, 7F)
 Integral buffers will be    131072 words long.
 Raffenetti 1 integral format.
 Two-electron integral symmetry is turned off.
    82 basis functions,   246 primitive gaussians,    82 cartesian basis functions
    45 alpha electrons       45 beta electrons
       nuclear repulsion energy       637.8094663798 Hartrees.
 NAtoms=   34 NActive=   34 NUniq=   34 SFac= 7.50D-01 NAtFMM=   80 NAOKFM=F Big=F
 Simple Huckel Guess.
 RHF-PM3 calculation of energy, first and second derivatives.
 MO and density RWFs will be updated without deorthogonalization.
 Numerical evaluation of force-constants.
 Step-Size= 0.018897 bohr.
 Closed-shell calculation:      45 occupied levels.
 NNHCO=    0.
 References:
  H: (PM3): J. J. P. STEWART, J. COMP. CHEM.     10, 209 (1989).
  C: (PM3): J. J. P. STEWART, J. COMP. CHEM.     10, 209 (1989).
  N: (PM3): J. J. P. STEWART, J. COMP. CHEM.     10, 209 (1989).
  O: (PM3): J. J. P. STEWART, J. COMP. CHEM.     10, 209 (1989).
 Ext34=T Pulay=F Camp-King=F BShift= 0.00D+00
 It=  1 PL= 0.103D+01 DiagD=T ESCF=     21.216025 Diff= 0.169D+02 RMSDP= 0.164D+00.
 It=  2 PL= 0.957D-01 DiagD=T ESCF=      0.047066 Diff=-0.212D+02 RMSDP= 0.605D-02.
 It=  3 PL= 0.373D-01 DiagD=F ESCF=     -1.595162 Diff=-0.164D+01 RMSDP= 0.382D-02.
 It=  4 PL= 0.625D-02 DiagD=F ESCF=     -2.025039 Diff=-0.430D+00 RMSDP= 0.734D-03.
 It=  5 PL= 0.396D-02 DiagD=F ESCF=     -1.900524 Diff= 0.125D+00 RMSDP= 0.447D-03.
 It=  6 PL= 0.310D-02 DiagD=F ESCF=     -1.906150 Diff=-0.563D-02 RMSDP= 0.854D-03.
 It=  7 PL= 0.102D-02 DiagD=F ESCF=     -1.918075 Diff=-0.119D-01 RMSDP= 0.688D-04.
 It=  8 PL= 0.395D-03 DiagD=F ESCF=     -1.910543 Diff= 0.753D-02 RMSDP= 0.406D-04.
 It=  9 PL= 0.244D-03 DiagD=F ESCF=     -1.910590 Diff=-0.478D-04 RMSDP= 0.737D-04.
 It= 10 PL= 0.815D-04 DiagD=F ESCF=     -1.910682 Diff=-0.917D-04 RMSDP= 0.747D-05.
 It= 11 PL= 0.531D-04 DiagD=F ESCF=     -1.910628 Diff= 0.538D-04 RMSDP= 0.475D-05.
 It= 12 PL= 0.338D-04 DiagD=F ESCF=     -1.910629 Diff=-0.582D-06 RMSDP= 0.920D-05.
 It= 13 PL= 0.877D-05 DiagD=F ESCF=     -1.910630 Diff=-0.132D-05 RMSDP= 0.811D-06.
 It= 14 PL= 0.339D-05 DiagD=F ESCF=     -1.910629 Diff= 0.795D-06 RMSDP= 0.501D-06.
 It= 15 PL= 0.281D-05 DiagD=F ESCF=     -1.910629 Diff=-0.672D-08 RMSDP= 0.951D-06.
 It= 16 PL= 0.962D-06 DiagD=F ESCF=     -1.910629 Diff=-0.146D-07 RMSDP= 0.947D-07.
 SE2nd ... symmetry will not be used.
 SE2nd: IAtom=  1 IXYZ=1 IS=1.
 SE2nd: IAtom=  1 IXYZ=1 IS=2.
 SE2nd: IAtom=  1 IXYZ=2 IS=1.
 SE2nd: IAtom=  1 IXYZ=2 IS=2.
 SE2nd: IAtom=  1 IXYZ=3 IS=1.
 SE2nd: IAtom=  1 IXYZ=3 IS=2.
 SE2nd: IAtom=  2 IXYZ=1 IS=1.
 SE2nd: IAtom=  2 IXYZ=1 IS=2.
 SE2nd: IAtom=  2 IXYZ=2 IS=1.
 SE2nd: IAtom=  2 IXYZ=2 IS=2.
 SE2nd: IAtom=  2 IXYZ=3 IS=1.
 SE2nd: IAtom=  2 IXYZ=3 IS=2.
 SE2nd: IAtom=  3 IXYZ=1 IS=1.
 SE2nd: IAtom=  3 IXYZ=1 IS=2.
 SE2nd: IAtom=  3 IXYZ=2 IS=1.
 SE2nd: IAtom=  3 IXYZ=2 IS=2.
 SE2nd: IAtom=  3 IXYZ=3 IS=1.
 SE2nd: IAtom=  3 IXYZ=3 IS=2.
 SE2nd: IAtom=  4 IXYZ=1 IS=1.
 SE2nd: IAtom=  4 IXYZ=1 IS=2.
 SE2nd: IAtom=  4 IXYZ=2 IS=1.
 SE2nd: IAtom=  4 IXYZ=2 IS=2.
 SE2nd: IAtom=  4 IXYZ=3 IS=1.
 SE2nd: IAtom=  4 IXYZ=3 IS=2.
 SE2nd: IAtom=  5 IXYZ=1 IS=1.
 SE2nd: IAtom=  5 IXYZ=1 IS=2.
 SE2nd: IAtom=  5 IXYZ=2 IS=1.
 SE2nd: IAtom=  5 IXYZ=2 IS=2.
 SE2nd: IAtom=  5 IXYZ=3 IS=1.
 SE2nd: IAtom=  5 IXYZ=3 IS=2.
 SE2nd: IAtom=  6 IXYZ=1 IS=1.
 SE2nd: IAtom=  6 IXYZ=1 IS=2.
 SE2nd: IAtom=  6 IXYZ=2 IS=1.
 SE2nd: IAtom=  6 IXYZ=2 IS=2.
 SE2nd: IAtom=  6 IXYZ=3 IS=1.
 SE2nd: IAtom=  6 IXYZ=3 IS=2.
 SE2nd: IAtom=  7 IXYZ=1 IS=1.
 SE2nd: IAtom=  7 IXYZ=1 IS=2.
 SE2nd: IAtom=  7 IXYZ=2 IS=1.
 SE2nd: IAtom=  7 IXYZ=2 IS=2.
 SE2nd: IAtom=  7 IXYZ=3 IS=1.
 SE2nd: IAtom=  7 IXYZ=3 IS=2.
 SE2nd: IAtom=  8 IXYZ=1 IS=1.
 SE2nd: IAtom=  8 IXYZ=1 IS=2.
 SE2nd: IAtom=  8 IXYZ=2 IS=1.
 SE2nd: IAtom=  8 IXYZ=2 IS=2.
 SE2nd: IAtom=  8 IXYZ=3 IS=1.
 SE2nd: IAtom=  8 IXYZ=3 IS=2.
 SE2nd: IAtom=  9 IXYZ=1 IS=1.
 SE2nd: IAtom=  9 IXYZ=1 IS=2.
 SE2nd: IAtom=  9 IXYZ=2 IS=1.
 SE2nd: IAtom=  9 IXYZ=2 IS=2.
 SE2nd: IAtom=  9 IXYZ=3 IS=1.
 SE2nd: IAtom=  9 IXYZ=3 IS=2.
 SE2nd: IAtom= 10 IXYZ=1 IS=1.
 SE2nd: IAtom= 10 IXYZ=1 IS=2.
 SE2nd: IAtom= 10 IXYZ=2 IS=1.
 SE2nd: IAtom= 10 IXYZ=2 IS=2.
 SE2nd: IAtom= 10 IXYZ=3 IS=1.
 SE2nd: IAtom= 10 IXYZ=3 IS=2.
 SE2nd: IAtom= 11 IXYZ=1 IS=1.
 SE2nd: IAtom= 11 IXYZ=1 IS=2.
 SE2nd: IAtom= 11 IXYZ=2 IS=1.
 SE2nd: IAtom= 11 IXYZ=2 IS=2.
 SE2nd: IAtom= 11 IXYZ=3 IS=1.
 SE2nd: IAtom= 11 IXYZ=3 IS=2.
 SE2nd: IAtom= 12 IXYZ=1 IS=1.
 SE2nd: IAtom= 12 IXYZ=1 IS=2.
 SE2nd: IAtom= 12 IXYZ=2 IS=1.
 SE2nd: IAtom= 12 IXYZ=2 IS=2.
 SE2nd: IAtom= 12 IXYZ=3 IS=1.
 SE2nd: IAtom= 12 IXYZ=3 IS=2.
 SE2nd: IAtom= 13 IXYZ=1 IS=1.
 SE2nd: IAtom= 13 IXYZ=1 IS=2.
 SE2nd: IAtom= 13 IXYZ=2 IS=1.
 SE2nd: IAtom= 13 IXYZ=2 IS=2.
 SE2nd: IAtom= 13 IXYZ=3 IS=1.
 SE2nd: IAtom= 13 IXYZ=3 IS=2.
 SE2nd: IAtom= 14 IXYZ=1 IS=1.
 SE2nd: IAtom= 14 IXYZ=1 IS=2.
 SE2nd: IAtom= 14 IXYZ=2 IS=1.
 SE2nd: IAtom= 14 IXYZ=2 IS=2.
 SE2nd: IAtom= 14 IXYZ=3 IS=1.
 SE2nd: IAtom= 14 IXYZ=3 IS=2.
 SE2nd: IAtom= 15 IXYZ=1 IS=1.
 SE2nd: IAtom= 15 IXYZ=1 IS=2.
 SE2nd: IAtom= 15 IXYZ=2 IS=1.
 SE2nd: IAtom= 15 IXYZ=2 IS=2.
 SE2nd: IAtom= 15 IXYZ=3 IS=1.
 SE2nd: IAtom= 15 IXYZ=3 IS=2.
 SE2nd: IAtom= 16 IXYZ=1 IS=1.
 SE2nd: IAtom= 16 IXYZ=1 IS=2.
 SE2nd: IAtom= 16 IXYZ=2 IS=1.
 SE2nd: IAtom= 16 IXYZ=2 IS=2.
 SE2nd: IAtom= 16 IXYZ=3 IS=1.
 SE2nd: IAtom= 16 IXYZ=3 IS=2.
 SE2nd: IAtom= 17 IXYZ=1 IS=1.
 SE2nd: IAtom= 17 IXYZ=1 IS=2.
 SE2nd: IAtom= 17 IXYZ=2 IS=1.
 SE2nd: IAtom= 17 IXYZ=2 IS=2.
 SE2nd: IAtom= 17 IXYZ=3 IS=1.
 SE2nd: IAtom= 17 IXYZ=3 IS=2.
 SE2nd: IAtom= 18 IXYZ=1 IS=1.
 SE2nd: IAtom= 18 IXYZ=1 IS=2.
 SE2nd: IAtom= 18 IXYZ=2 IS=1.
 SE2nd: IAtom= 18 IXYZ=2 IS=2.
 SE2nd: IAtom= 18 IXYZ=3 IS=1.
 SE2nd: IAtom= 18 IXYZ=3 IS=2.
 SE2nd: IAtom= 19 IXYZ=1 IS=1.
 SE2nd: IAtom= 19 IXYZ=1 IS=2.
 SE2nd: IAtom= 19 IXYZ=2 IS=1.
 SE2nd: IAtom= 19 IXYZ=2 IS=2.
 SE2nd: IAtom= 19 IXYZ=3 IS=1.
 SE2nd: IAtom= 19 IXYZ=3 IS=2.
 SE2nd: IAtom= 20 IXYZ=1 IS=1.
 SE2nd: IAtom= 20 IXYZ=1 IS=2.
 SE2nd: IAtom= 20 IXYZ=2 IS=1.
 SE2nd: IAtom= 20 IXYZ=2 IS=2.
 SE2nd: IAtom= 20 IXYZ=3 IS=1.
 SE2nd: IAtom= 20 IXYZ=3 IS=2.
 SE2nd: IAtom= 21 IXYZ=1 IS=1.
 SE2nd: IAtom= 21 IXYZ=1 IS=2.
 SE2nd: IAtom= 21 IXYZ=2 IS=1.
 SE2nd: IAtom= 21 IXYZ=2 IS=2.
 SE2nd: IAtom= 21 IXYZ=3 IS=1.
 SE2nd: IAtom= 21 IXYZ=3 IS=2.
 SE2nd: IAtom= 22 IXYZ=1 IS=1.
 SE2nd: IAtom= 22 IXYZ=1 IS=2.
 SE2nd: IAtom= 22 IXYZ=2 IS=1.
 SE2nd: IAtom= 22 IXYZ=2 IS=2.
 SE2nd: IAtom= 22 IXYZ=3 IS=1.
 SE2nd: IAtom= 22 IXYZ=3 IS=2.
 SE2nd: IAtom= 23 IXYZ=1 IS=1.
 SE2nd: IAtom= 23 IXYZ=1 IS=2.
 SE2nd: IAtom= 23 IXYZ=2 IS=1.
 SE2nd: IAtom= 23 IXYZ=2 IS=2.
 SE2nd: IAtom= 23 IXYZ=3 IS=1.
 SE2nd: IAtom= 23 IXYZ=3 IS=2.
 SE2nd: IAtom= 24 IXYZ=1 IS=1.
 SE2nd: IAtom= 24 IXYZ=1 IS=2.
 SE2nd: IAtom= 24 IXYZ=2 IS=1.
 SE2nd: IAtom= 24 IXYZ=2 IS=2.
 SE2nd: IAtom= 24 IXYZ=3 IS=1.
 SE2nd: IAtom= 24 IXYZ=3 IS=2.
 SE2nd: IAtom= 25 IXYZ=1 IS=1.
 SE2nd: IAtom= 25 IXYZ=1 IS=2.
 SE2nd: IAtom= 25 IXYZ=2 IS=1.
 SE2nd: IAtom= 25 IXYZ=2 IS=2.
 SE2nd: IAtom= 25 IXYZ=3 IS=1.
 SE2nd: IAtom= 25 IXYZ=3 IS=2.
 SE2nd: IAtom= 26 IXYZ=1 IS=1.
 SE2nd: IAtom= 26 IXYZ=1 IS=2.
 SE2nd: IAtom= 26 IXYZ=2 IS=1.
 SE2nd: IAtom= 26 IXYZ=2 IS=2.
 SE2nd: IAtom= 26 IXYZ=3 IS=1.
 SE2nd: IAtom= 26 IXYZ=3 IS=2.
 SE2nd: IAtom= 27 IXYZ=1 IS=1.
 SE2nd: IAtom= 27 IXYZ=1 IS=2.
 SE2nd: IAtom= 27 IXYZ=2 IS=1.
 SE2nd: IAtom= 27 IXYZ=2 IS=2.
 SE2nd: IAtom= 27 IXYZ=3 IS=1.
 SE2nd: IAtom= 27 IXYZ=3 IS=2.
 SE2nd: IAtom= 28 IXYZ=1 IS=1.
 SE2nd: IAtom= 28 IXYZ=1 IS=2.
 SE2nd: IAtom= 28 IXYZ=2 IS=1.
 SE2nd: IAtom= 28 IXYZ=2 IS=2.
 SE2nd: IAtom= 28 IXYZ=3 IS=1.
 SE2nd: IAtom= 28 IXYZ=3 IS=2.
 SE2nd: IAtom= 29 IXYZ=1 IS=1.
 SE2nd: IAtom= 29 IXYZ=1 IS=2.
 SE2nd: IAtom= 29 IXYZ=2 IS=1.
 SE2nd: IAtom= 29 IXYZ=2 IS=2.
 SE2nd: IAtom= 29 IXYZ=3 IS=1.
 SE2nd: IAtom= 29 IXYZ=3 IS=2.
 SE2nd: IAtom= 30 IXYZ=1 IS=1.
 SE2nd: IAtom= 30 IXYZ=1 IS=2.
 SE2nd: IAtom= 30 IXYZ=2 IS=1.
 SE2nd: IAtom= 30 IXYZ=2 IS=2.
 SE2nd: IAtom= 30 IXYZ=3 IS=1.
 SE2nd: IAtom= 30 IXYZ=3 IS=2.
 SE2nd: IAtom= 31 IXYZ=1 IS=1.
 SE2nd: IAtom= 31 IXYZ=1 IS=2.
 SE2nd: IAtom= 31 IXYZ=2 IS=1.
 SE2nd: IAtom= 31 IXYZ=2 IS=2.
 SE2nd: IAtom= 31 IXYZ=3 IS=1.
 SE2nd: IAtom= 31 IXYZ=3 IS=2.
 SE2nd: IAtom= 32 IXYZ=1 IS=1.
 SE2nd: IAtom= 32 IXYZ=1 IS=2.
 SE2nd: IAtom= 32 IXYZ=2 IS=1.
 SE2nd: IAtom= 32 IXYZ=2 IS=2.
 SE2nd: IAtom= 32 IXYZ=3 IS=1.
 SE2nd: IAtom= 32 IXYZ=3 IS=2.
 SE2nd: IAtom= 33 IXYZ=1 IS=1.
 SE2nd: IAtom= 33 IXYZ=1 IS=2.
 SE2nd: IAtom= 33 IXYZ=2 IS=1.
 SE2nd: IAtom= 33 IXYZ=2 IS=2.
 SE2nd: IAtom= 33 IXYZ=3 IS=1.
 SE2nd: IAtom= 33 IXYZ=3 IS=2.
 SE2nd: IAtom= 34 IXYZ=1 IS=1.
 SE2nd: IAtom= 34 IXYZ=1 IS=2.
 SE2nd: IAtom= 34 IXYZ=2 IS=1.
 SE2nd: IAtom= 34 IXYZ=2 IS=2.
 SE2nd: IAtom= 34 IXYZ=3 IS=1.
 SE2nd: IAtom= 34 IXYZ=3 IS=2.
 Maximum difference in off-diagonal FC elements:
 I= 60 J= 53 Difference=    1.6283823807D-04
 Max difference between analytic and numerical forces:
 I= 60 Difference=    1.3544688145D-04
 Energy=   -0.070215714361 NIter=  17.
 Dipole moment=      -1.158262       0.172327      -0.420941

 **********************************************************************

            Population analysis using the SCF density.

 **********************************************************************

 Alpha  occ. eigenvalues --   -1.48983  -1.44197  -1.36217  -1.33450  -1.23786
 Alpha  occ. eigenvalues --   -1.22538  -1.12413  -1.05041  -1.01230  -0.97812
 Alpha  occ. eigenvalues --   -0.89464  -0.84972  -0.78748  -0.75663  -0.74439
 Alpha  occ. eigenvalues --   -0.70169  -0.66433  -0.65541  -0.64073  -0.63168
 Alpha  occ. eigenvalues --   -0.62246  -0.60547  -0.58342  -0.56910  -0.56470
 Alpha  occ. eigenvalues --   -0.55147  -0.53901  -0.53506  -0.51927  -0.51304
 Alpha  occ. eigenvalues --   -0.49836  -0.49717  -0.48893  -0.48460  -0.47652
 Alpha  occ. eigenvalues --   -0.46786  -0.45646  -0.45363  -0.44173  -0.43668
 Alpha  occ. eigenvalues --   -0.43480  -0.37516  -0.37044  -0.32943  -0.27169
 Alpha virt. eigenvalues --   -0.07442   0.01221   0.02164   0.04196   0.07087
 Alpha virt. eigenvalues --    0.08657   0.08870   0.09785   0.11087   0.11411
 Alpha virt. eigenvalues --    0.11716   0.12032   0.12975   0.13536   0.14070
 Alpha virt. eigenvalues --    0.14154   0.14337   0.14706   0.15036   0.15412
 Alpha virt. eigenvalues --    0.15568   0.15598   0.15965   0.16189   0.16361
 Alpha virt. eigenvalues --    0.16687   0.16736   0.17421   0.18063   0.19090
 Alpha virt. eigenvalues --    0.19559   0.19927   0.20352   0.20591   0.23896
 Alpha virt. eigenvalues --    0.25074   0.29000
          Condensed to atoms (all electrons):
              1          2          3          4          5          6
     1  C    4.139268   0.000000   0.000000   0.000000   0.000000   0.000000
     2  C    0.000000   4.017964   0.000000   0.000000   0.000000   0.000000
     3  C    0.000000   0.000000   4.219633   0.000000   0.000000   0.000000
     4  C    0.000000   0.000000   0.000000   4.038455   0.000000   0.000000
     5  N    0.000000   0.000000   0.000000   0.000000   4.869091   0.000000
     6  C    0.000000   0.000000   0.000000   0.000000   0.000000   3.658149
     7  O    0.000000   0.000000   0.000000   0.000000   0.000000   0.000000
     8  O    0.000000   0.000000   0.000000   0.000000   0.000000   0.000000
     9  C    0.000000   0.000000   0.000000   0.000000   0.000000   0.000000
    10  H    0.000000   0.000000   0.000000   0.000000   0.000000   0.000000
    11  H    0.000000   0.000000   0.000000   0.000000   0.000000   0.000000
    12  H    0.000000   0.000000   0.000000   0.000000   0.000000   0.000000
    13  H    0.000000   0.000000   0.000000   0.000000   0.000000   0.000000
    14  C    0.000000   0.000000   0.000000   0.000000   0.000000   0.000000
    15  C    0.000000   0.000000   0.000000   0.000000   0.000000   0.000000
    16  H    0.000000   0.000000   0.000000   0.000000   0.000000   0.000000
    17  H    0.000000   0.000000   0.000000   0.000000   0.000000   0.000000
    18  C    0.000000   0.000000   0.000000   0.000000   0.000000   0.000000
    19  H    0.000000   0.000000   0.000000   0.000000   0.000000   0.000000
    20  O    0.000000   0.000000   0.000000   0.000000   0.000000   0.000000
    21  N    0.000000   0.000000   0.000000   0.000000   0.000000   0.000000
    22  H    0.000000   0.000000   0.000000   0.000000   0.000000   0.000000
    23  H    0.000000   0.000000   0.000000   0.000000   0.000000   0.000000
    24  H    0.000000   0.000000   0.000000   0.000000   0.000000   0.000000
    25  H    0.000000   0.000000   0.000000   0.000000   0.000000   0.000000
    26  H    0.000000   0.000000   0.000000   0.000000   0.000000   0.000000
    27  C    0.000000   0.000000   0.000000   0.000000   0.000000   0.000000
    28  H    0.000000   0.000000   0.000000   0.000000   0.000000   0.000000
    29  H    0.000000   0.000000   0.000000   0.000000   0.000000   0.000000
    30  H    0.000000   0.000000   0.000000   0.000000   0.000000   0.000000
    31  C    0.000000   0.000000   0.000000   0.000000   0.000000   0.000000
    32  H    0.000000   0.000000   0.000000   0.000000   0.000000   0.000000
    33  H    0.000000   0.000000   0.000000   0.000000   0.000000   0.000000
    34  H    0.000000   0.000000   0.000000   0.000000   0.000000   0.000000
              7          8          9         10         11         12
     1  C    0.000000   0.000000   0.000000   0.000000   0.000000   0.000000
     2  C    0.000000   0.000000   0.000000   0.000000   0.000000   0.000000
     3  C    0.000000   0.000000   0.000000   0.000000   0.000000   0.000000
     4  C    0.000000   0.000000   0.000000   0.000000   0.000000   0.000000
     5  N    0.000000   0.000000   0.000000   0.000000   0.000000   0.000000
     6  C    0.000000   0.000000   0.000000   0.000000   0.000000   0.000000
     7  O    6.389497   0.000000   0.000000   0.000000   0.000000   0.000000
     8  O    0.000000   6.240437   0.000000   0.000000   0.000000   0.000000
     9  C    0.000000   0.000000   3.917078   0.000000   0.000000   0.000000
    10  H    0.000000   0.000000   0.000000   0.957779   0.000000   0.000000
    11  H    0.000000   0.000000   0.000000   0.000000   0.961482   0.000000
    12  H    0.000000   0.000000   0.000000   0.000000   0.000000   0.946300
    13  H    0.000000   0.000000   0.000000   0.000000   0.000000   0.000000
    14  C    0.000000   0.000000   0.000000   0.000000   0.000000   0.000000
    15  C    0.000000   0.000000   0.000000   0.000000   0.000000   0.000000
    16  H    0.000000   0.000000   0.000000   0.000000   0.000000   0.000000
    17  H    0.000000   0.000000   0.000000   0.000000   0.000000   0.000000
    18  C    0.000000   0.000000   0.000000   0.000000   0.000000   0.000000
    19  H    0.000000   0.000000   0.000000   0.000000   0.000000   0.000000
    20  O    0.000000   0.000000   0.000000   0.000000   0.000000   0.000000
    21  N    0.000000   0.000000   0.000000   0.000000   0.000000   0.000000
    22  H    0.000000   0.000000   0.000000   0.000000   0.000000   0.000000
    23  H    0.000000   0.000000   0.000000   0.000000   0.000000   0.000000
    24  H    0.000000   0.000000   0.000000   0.000000   0.000000   0.000000
    25  H    0.000000   0.000000   0.000000   0.000000   0.000000   0.000000
    26  H    0.000000   0.000000   0.000000   0.000000   0.000000   0.000000
    27  C    0.000000   0.000000   0.000000   0.000000   0.000000   0.000000
    28  H    0.000000   0.000000   0.000000   0.000000   0.000000   0.000000
    29  H    0.000000   0.000000   0.000000   0.000000   0.000000   0.000000
    30  H    0.000000   0.000000   0.000000   0.000000   0.000000   0.000000
    31  C    0.000000   0.000000   0.000000   0.000000   0.000000   0.000000
    32  H    0.000000   0.000000   0.000000   0.000000   0.000000   0.000000
    33  H    0.000000   0.000000   0.000000   0.000000   0.000000   0.000000
    34  H    0.000000   0.000000   0.000000   0.000000   0.000000   0.000000
             13         14         15         16         17         18
     1  C    0.000000   0.000000   0.000000   0.000000   0.000000   0.000000
     2  C    0.000000   0.000000   0.000000   0.000000   0.000000   0.000000
     3  C    0.000000   0.000000   0.000000   0.000000   0.000000   0.000000
     4  C    0.000000   0.000000   0.000000   0.000000   0.000000   0.000000
     5  N    0.000000   0.000000   0.000000   0.000000   0.000000   0.000000
     6  C    0.000000   0.000000   0.000000   0.000000   0.000000   0.000000
     7  O    0.000000   0.000000   0.000000   0.000000   0.000000   0.000000
     8  O    0.000000   0.000000   0.000000   0.000000   0.000000   0.000000
     9  C    0.000000   0.000000   0.000000   0.000000   0.000000   0.000000
    10  H    0.000000   0.000000   0.000000   0.000000   0.000000   0.000000
    11  H    0.000000   0.000000   0.000000   0.000000   0.000000   0.000000
    12  H    0.000000   0.000000   0.000000   0.000000   0.000000   0.000000
    13  H    0.878747   0.000000   0.000000   0.000000   0.000000   0.000000
    14  C    0.000000   3.960465   0.000000   0.000000   0.000000   0.000000
    15  C    0.000000   0.000000   4.427779   0.000000   0.000000   0.000000
    16  H    0.000000   0.000000   0.000000   0.924852   0.000000   0.000000
    17  H    0.000000   0.000000   0.000000   0.000000   0.953122   0.000000
    18  C    0.000000   0.000000   0.000000   0.000000   0.000000   3.703249
    19  H    0.000000   0.000000   0.000000   0.000000   0.000000   0.000000
    20  O    0.000000   0.000000   0.000000   0.000000   0.000000   0.000000
    21  N    0.000000   0.000000   0.000000   0.000000   0.000000   0.000000
    22  H    0.000000   0.000000   0.000000   0.000000   0.000000   0.000000
    23  H    0.000000   0.000000   0.000000   0.000000   0.000000   0.000000
    24  H    0.000000   0.000000   0.000000   0.000000   0.000000   0.000000
    25  H    0.000000   0.000000   0.000000   0.000000   0.000000   0.000000
    26  H    0.000000   0.000000   0.000000   0.000000   0.000000   0.000000
    27  C    0.000000   0.000000   0.000000   0.000000   0.000000   0.000000
    28  H    0.000000   0.000000   0.000000   0.000000   0.000000   0.000000
    29  H    0.000000   0.000000   0.000000   0.000000   0.000000   0.000000
    30  H    0.000000   0.000000   0.000000   0.000000   0.000000   0.000000
    31  C    0.000000   0.000000   0.000000   0.000000   0.000000   0.000000
    32  H    0.000000   0.000000   0.000000   0.000000   0.000000   0.000000
    33  H    0.000000   0.000000   0.000000   0.000000   0.000000   0.000000
    34  H    0.000000   0.000000   0.000000   0.000000   0.000000   0.000000
             19         20         21         22         23         24
     1  C    0.000000   0.000000   0.000000   0.000000   0.000000   0.000000
     2  C    0.000000   0.000000   0.000000   0.000000   0.000000   0.000000
     3  C    0.000000   0.000000   0.000000   0.000000   0.000000   0.000000
     4  C    0.000000   0.000000   0.000000   0.000000   0.000000   0.000000
     5  N    0.000000   0.000000   0.000000   0.000000   0.000000   0.000000
     6  C    0.000000   0.000000   0.000000   0.000000   0.000000   0.000000
     7  O    0.000000   0.000000   0.000000   0.000000   0.000000   0.000000
     8  O    0.000000   0.000000   0.000000   0.000000   0.000000   0.000000
     9  C    0.000000   0.000000   0.000000   0.000000   0.000000   0.000000
    10  H    0.000000   0.000000   0.000000   0.000000   0.000000   0.000000
    11  H    0.000000   0.000000   0.000000   0.000000   0.000000   0.000000
    12  H    0.000000   0.000000   0.000000   0.000000   0.000000   0.000000
    13  H    0.000000   0.000000   0.000000   0.000000   0.000000   0.000000
    14  C    0.000000   0.000000   0.000000   0.000000   0.000000   0.000000
    15  C    0.000000   0.000000   0.000000   0.000000   0.000000   0.000000
    16  H    0.000000   0.000000   0.000000   0.000000   0.000000   0.000000
    17  H    0.000000   0.000000   0.000000   0.000000   0.000000   0.000000
    18  C    0.000000   0.000000   0.000000   0.000000   0.000000   0.000000
    19  H    0.876049   0.000000   0.000000   0.000000   0.000000   0.000000
    20  O    0.000000   6.444663   0.000000   0.000000   0.000000   0.000000
    21  N    0.000000   0.000000   5.065499   0.000000   0.000000   0.000000
    22  H    0.000000   0.000000   0.000000   0.868756   0.000000   0.000000
    23  H    0.000000   0.000000   0.000000   0.000000   0.916220   0.000000
    24  H    0.000000   0.000000   0.000000   0.000000   0.000000   0.926595
    25  H    0.000000   0.000000   0.000000   0.000000   0.000000   0.000000
    26  H    0.000000   0.000000   0.000000   0.000000   0.000000   0.000000
    27  C    0.000000   0.000000   0.000000   0.000000   0.000000   0.000000
    28  H    0.000000   0.000000   0.000000   0.000000   0.000000   0.000000
    29  H    0.000000   0.000000   0.000000   0.000000   0.000000   0.000000
    30  H    0.000000   0.000000   0.000000   0.000000   0.000000   0.000000
    31  C    0.000000   0.000000   0.000000   0.000000   0.000000   0.000000
    32  H    0.000000   0.000000   0.000000   0.000000   0.000000   0.000000
    33  H    0.000000   0.000000   0.000000   0.000000   0.000000   0.000000
    34  H    0.000000   0.000000   0.000000   0.000000   0.000000   0.000000
             25         26         27         28         29         30
     1  C    0.000000   0.000000   0.000000   0.000000   0.000000   0.000000
     2  C    0.000000   0.000000   0.000000   0.000000   0.000000   0.000000
     3  C    0.000000   0.000000   0.000000   0.000000   0.000000   0.000000
     4  C    0.000000   0.000000   0.000000   0.000000   0.000000   0.000000
     5  N    0.000000   0.000000   0.000000   0.000000   0.000000   0.000000
     6  C    0.000000   0.000000   0.000000   0.000000   0.000000   0.000000
     7  O    0.000000   0.000000   0.000000   0.000000   0.000000   0.000000
     8  O    0.000000   0.000000   0.000000   0.000000   0.000000   0.000000
     9  C    0.000000   0.000000   0.000000   0.000000   0.000000   0.000000
    10  H    0.000000   0.000000   0.000000   0.000000   0.000000   0.000000
    11  H    0.000000   0.000000   0.000000   0.000000   0.000000   0.000000
    12  H    0.000000   0.000000   0.000000   0.000000   0.000000   0.000000
    13  H    0.000000   0.000000   0.000000   0.000000   0.000000   0.000000
    14  C    0.000000   0.000000   0.000000   0.000000   0.000000   0.000000
    15  C    0.000000   0.000000   0.000000   0.000000   0.000000   0.000000
    16  H    0.000000   0.000000   0.000000   0.000000   0.000000   0.000000
    17  H    0.000000   0.000000   0.000000   0.000000   0.000000   0.000000
    18  C    0.000000   0.000000   0.000000   0.000000   0.000000   0.000000
    19  H    0.000000   0.000000   0.000000   0.000000   0.000000   0.000000
    20  O    0.000000   0.000000   0.000000   0.000000   0.000000   0.000000
    21  N    0.000000   0.000000   0.000000   0.000000   0.000000   0.000000
    22  H    0.000000   0.000000   0.000000   0.000000   0.000000   0.000000
    23  H    0.000000   0.000000   0.000000   0.000000   0.000000   0.000000
    24  H    0.000000   0.000000   0.000000   0.000000   0.000000   0.000000
    25  H    0.906446   0.000000   0.000000   0.000000   0.000000   0.000000
    26  H    0.000000   0.887550   0.000000   0.000000   0.000000   0.000000
    27  C    0.000000   0.000000   4.091066   0.000000   0.000000   0.000000
    28  H    0.000000   0.000000   0.000000   0.953619   0.000000   0.000000
    29  H    0.000000   0.000000   0.000000   0.000000   0.943558   0.000000
    30  H    0.000000   0.000000   0.000000   0.000000   0.000000   0.970327
    31  C    0.000000   0.000000   0.000000   0.000000   0.000000   0.000000
    32  H    0.000000   0.000000   0.000000   0.000000   0.000000   0.000000
    33  H    0.000000   0.000000   0.000000   0.000000   0.000000   0.000000
    34  H    0.000000   0.000000   0.000000   0.000000   0.000000   0.000000
             31         32         33         34
     1  C    0.000000   0.000000   0.000000   0.000000
     2  C    0.000000   0.000000   0.000000   0.000000
     3  C    0.000000   0.000000   0.000000   0.000000
     4  C    0.000000   0.000000   0.000000   0.000000
     5  N    0.000000   0.000000   0.000000   0.000000
     6  C    0.000000   0.000000   0.000000   0.000000
     7  O    0.000000   0.000000   0.000000   0.000000
     8  O    0.000000   0.000000   0.000000   0.000000
     9  C    0.000000   0.000000   0.000000   0.000000
    10  H    0.000000   0.000000   0.000000   0.000000
    11  H    0.000000   0.000000   0.000000   0.000000
    12  H    0.000000   0.000000   0.000000   0.000000
    13  H    0.000000   0.000000   0.000000   0.000000
    14  C    0.000000   0.000000   0.000000   0.000000
    15  C    0.000000   0.000000   0.000000   0.000000
    16  H    0.000000   0.000000   0.000000   0.000000
    17  H    0.000000   0.000000   0.000000   0.000000
    18  C    0.000000   0.000000   0.000000   0.000000
    19  H    0.000000   0.000000   0.000000   0.000000
    20  O    0.000000   0.000000   0.000000   0.000000
    21  N    0.000000   0.000000   0.000000   0.000000
    22  H    0.000000   0.000000   0.000000   0.000000
    23  H    0.000000   0.000000   0.000000   0.000000
    24  H    0.000000   0.000000   0.000000   0.000000
    25  H    0.000000   0.000000   0.000000   0.000000
    26  H    0.000000   0.000000   0.000000   0.000000
    27  C    0.000000   0.000000   0.000000   0.000000
    28  H    0.000000   0.000000   0.000000   0.000000
    29  H    0.000000   0.000000   0.000000   0.000000
    30  H    0.000000   0.000000   0.000000   0.000000
    31  C    4.074375   0.000000   0.000000   0.000000
    32  H    0.000000   0.936902   0.000000   0.000000
    33  H    0.000000   0.000000   0.959388   0.000000
    34  H    0.000000   0.000000   0.000000   0.975638
 Mulliken atomic charges:
              1
     1  C   -0.139268
     2  C   -0.017964
     3  C   -0.219633
     4  C   -0.038455
     5  N    0.130909
     6  C    0.341851
     7  O   -0.389497
     8  O   -0.240437
     9  C    0.082922
    10  H    0.042221
    11  H    0.038518
    12  H    0.053700
    13  H    0.121253
    14  C    0.039535
    15  C   -0.427779
    16  H    0.075148
    17  H    0.046878
    18  C    0.296751
    19  H    0.123951
    20  O   -0.444663
    21  N   -0.065499
    22  H    0.131244
    23  H    0.083780
    24  H    0.073405
    25  H    0.093554
    26  H    0.112450
    27  C   -0.091066
    28  H    0.046381
    29  H    0.056442
    30  H    0.029673
    31  C   -0.074375
    32  H    0.063098
    33  H    0.040612
    34  H    0.024362
 Sum of Mulliken charges=   0.00000
 Atomic charges with hydrogens summed into heavy atoms:
              1
     1  C    0.017917
     2  C    0.075589
     3  C   -0.107183
     4  C    0.092789
     5  N    0.252162
     6  C    0.341851
     7  O   -0.389497
     8  O   -0.240437
     9  C    0.217362
    10  H    0.000000
    11  H    0.000000
    12  H    0.000000
    13  H    0.000000
    14  C    0.161560
    15  C   -0.303827
    16  H    0.000000
    17  H    0.000000
    18  C    0.296751
    19  H    0.000000
    20  O   -0.444663
    21  N   -0.065499
    22  H    0.000000
    23  H    0.000000
    24  H    0.000000
    25  H    0.000000
    26  H    0.000000
    27  C    0.041430
    28  H    0.000000
    29  H    0.000000
    30  H    0.000000
    31  C    0.053696
    32  H    0.000000
    33  H    0.000000
    34  H    0.000000
 Sum of Mulliken charges=   0.00000
 APT atomic charges:
              1
     1  C   -0.548717
     2  C    0.388764
     3  C   -0.746966
     4  C    0.666848
     5  N   -0.927742
     6  C    1.603364
     7  O   -0.808836
     8  O   -0.630099
     9  C    0.300315
    10  H   -0.002040
    11  H    0.003110
    12  H    0.008813
    13  H    0.151007
    14  C    0.470033
    15  C   -0.672209
    16  H    0.022064
    17  H   -0.015409
    18  C    1.332259
    19  H    0.048253
    20  O   -0.709579
    21  N   -0.683604
    22  H    0.095451
    23  H    0.049279
    24  H    0.101626
    25  H    0.093194
    26  H    0.118739
    27  C    0.098759
    28  H    0.019969
    29  H    0.035382
    30  H   -0.018334
    31  C    0.136136
    32  H    0.042128
    33  H    0.010481
    34  H   -0.031504
 Sum of APT charges=   0.00093
 APT Atomic charges with hydrogens summed into heavy atoms:
              1
     1  C   -0.397812
     2  C    0.481958
     3  C   -0.628228
     4  C    0.762299
     5  N   -0.776735
     6  C    1.603364
     7  O   -0.808836
     8  O   -0.630099
     9  C    0.310197
    10  H    0.000000
    11  H    0.000000
    12  H    0.000000
    13  H    0.000000
    14  C    0.476688
    15  C   -0.623956
    16  H    0.000000
    17  H    0.000000
    18  C    1.332259
    19  H    0.000000
    20  O   -0.709579
    21  N   -0.683604
    22  H    0.000000
    23  H    0.000000
    24  H    0.000000
    25  H    0.000000
    26  H    0.000000
    27  C    0.135777
    28  H    0.000000
    29  H    0.000000
    30  H    0.000000
    31  C    0.157240
    32  H    0.000000
    33  H    0.000000
    34  H    0.000000
 Sum of APT charges=   0.00093
 Full mass-weighted force constant matrix:
 Low frequencies --- -540.2844   -4.3964   -2.4050   -1.8918   -0.0309    0.1621
 Low frequencies ---    0.2228   17.8923   32.7280
 ******    1 imaginary frequencies (negative Signs) ****** 
 Diagonal vibrational polarizability:
      233.0133208      89.7957720      23.9124878
 Harmonic frequencies (cm**-1), IR intensities (KM/Mole), Raman scattering
 activities (A**4/AMU), depolarization ratios for plane and unpolarized
 incident light, reduced masses (AMU), force constants (mDyne/A),
 and normal coordinates:
                     1                      2                      3
                     A                      A                      A
 Frequencies --  -540.2844                17.8893                32.7277
 Red. masses --     8.2846                 4.8027                 3.6408
 Frc consts  --     1.4248                 0.0009                 0.0023
 IR Inten    --   673.8747                 0.2239                 0.5244
 Atom AN      X      Y      Z        X      Y      Z        X      Y      Z
   1   6     0.54   0.04  -0.09    -0.09   0.00   0.04    -0.02  -0.01  -0.01
   2   6     0.03  -0.03  -0.09    -0.03   0.01   0.01     0.04  -0.03  -0.04
   3   6    -0.05   0.08   0.04     0.11   0.03  -0.04     0.06  -0.04  -0.03
   4   6     0.11  -0.01   0.04     0.20   0.04  -0.04     0.03  -0.04   0.01
   5   7     0.04   0.03  -0.03    -0.01   0.01  -0.02    -0.01  -0.02   0.02
   6   6     0.01  -0.02   0.01     0.09   0.05   0.01    -0.02  -0.02   0.06
   7   8    -0.01   0.00   0.00     0.31   0.07   0.02     0.01  -0.04   0.08
   8   8    -0.01   0.00   0.00    -0.10   0.03   0.02    -0.08   0.01   0.07
   9   6     0.00   0.00   0.01    -0.05   0.06   0.08    -0.06   0.03   0.12
  10   1     0.00   0.01   0.01     0.01   0.13   0.22    -0.04   0.04   0.15
  11   1     0.00   0.00   0.01     0.06   0.02  -0.02    -0.03   0.00   0.12
  12   1     0.00   0.01   0.01    -0.20   0.05   0.07    -0.09   0.05   0.12
  13   1    -0.09   0.02   0.02    -0.21   0.01   0.02    -0.02   0.00   0.01
  14   6    -0.52  -0.04   0.14    -0.04  -0.05   0.06     0.00   0.00   0.08
  15   6    -0.11  -0.10  -0.01    -0.09  -0.04   0.03     0.04   0.05   0.03
  16   1     0.13   0.01  -0.12    -0.06  -0.09   0.08    -0.05  -0.07   0.11
  17   1     0.06  -0.09   0.03    -0.02  -0.03   0.09     0.04   0.04   0.15
  18   6    -0.03   0.04  -0.02    -0.04  -0.05   0.00    -0.01  -0.01  -0.04
  19   1     0.29   0.19   0.05    -0.12  -0.03   0.03     0.09   0.13   0.04
  20   8    -0.01  -0.01   0.01     0.04  -0.04   0.02    -0.10  -0.11  -0.08
  21   7     0.01   0.01  -0.01    -0.08  -0.04  -0.06     0.03   0.04  -0.04
  22   1     0.18   0.04  -0.01     0.41   0.07  -0.06     0.05  -0.06   0.02
  23   1    -0.10   0.06  -0.02    -0.11   0.00   0.03    -0.05   0.00   0.00
  24   1     0.00  -0.07  -0.06    -0.08   0.00   0.03    -0.05   0.00  -0.03
  25   1    -0.04   0.00   0.06    -0.07   0.00   0.02     0.06  -0.03  -0.08
  26   1    -0.30  -0.05   0.09     0.22   0.03  -0.07     0.10  -0.06  -0.05
  27   6     0.00   0.00   0.00    -0.20  -0.05  -0.04     0.19   0.22  -0.08
  28   1    -0.01  -0.01  -0.01    -0.25  -0.09  -0.11     0.23   0.26  -0.01
  29   1     0.01   0.00   0.01    -0.20  -0.05  -0.03     0.25   0.28   0.00
  30   1    -0.01   0.01   0.00    -0.25  -0.03   0.02     0.20   0.26  -0.25
  31   6    -0.01   0.01   0.00    -0.03  -0.03  -0.08    -0.08  -0.05  -0.15
  32   1    -0.02   0.01   0.00     0.06  -0.02  -0.12    -0.13  -0.17  -0.10
  33   1     0.00   0.00   0.01    -0.08  -0.04  -0.15    -0.07  -0.03  -0.14
  34   1     0.00   0.00   0.00    -0.02  -0.03   0.00    -0.13  -0.01  -0.27
                     4                      5                      6
                     A                      A                      A
 Frequencies --    45.3599                55.2112                60.4683
 Red. masses --     4.3501                 3.9974                 3.9802
 Frc consts  --     0.0053                 0.0072                 0.0086
 IR Inten    --     1.4769                 2.1917                 0.9688
 Atom AN      X      Y      Z        X      Y      Z        X      Y      Z
   1   6     0.03   0.01   0.03    -0.07   0.00  -0.01    -0.01   0.03  -0.02
   2   6    -0.06   0.04   0.09     0.01   0.02  -0.06     0.01   0.03  -0.04
   3   6    -0.12   0.06   0.08     0.02   0.03  -0.07    -0.01   0.02  -0.02
   4   6    -0.10   0.06   0.05    -0.03   0.02  -0.05    -0.03   0.02  -0.01
   5   7    -0.10   0.03   0.04    -0.09   0.02  -0.04    -0.01   0.02  -0.01
   6   6     0.02   0.06   0.01    -0.08   0.03  -0.01     0.06   0.04  -0.02
   7   8     0.18   0.11  -0.02    -0.15  -0.01   0.01     0.04   0.03  -0.02
   8   8    -0.08   0.00   0.00     0.01   0.09   0.00     0.17   0.06  -0.02
   9   6     0.03   0.04  -0.01     0.16   0.15   0.03     0.26   0.09  -0.04
  10   1     0.08   0.17   0.08     0.15   0.25  -0.02     0.23   0.11  -0.13
  11   1     0.15  -0.01  -0.12     0.22   0.07   0.10     0.25   0.05   0.05
  12   1    -0.08  -0.01  -0.02     0.21   0.20   0.03     0.37   0.12  -0.04
  13   1    -0.13   0.02   0.05    -0.12   0.03  -0.04     0.02   0.03  -0.02
  14   6     0.02  -0.06  -0.13    -0.03  -0.10   0.12     0.01   0.00   0.02
  15   6    -0.07  -0.12  -0.10    -0.04  -0.07   0.09     0.01  -0.01   0.03
  16   1     0.10  -0.01  -0.17    -0.09  -0.18   0.16    -0.02  -0.02   0.03
  17   1    -0.01  -0.09  -0.18     0.06  -0.06   0.18     0.04   0.00   0.03
  18   6    -0.05  -0.09  -0.06     0.00  -0.09   0.03    -0.07  -0.04   0.03
  19   1    -0.13  -0.18  -0.10    -0.05  -0.03   0.09     0.05   0.00   0.03
  20   8    -0.10  -0.08  -0.07     0.02  -0.16   0.02    -0.11  -0.03   0.02
  21   7     0.06  -0.03   0.02     0.05   0.01  -0.02    -0.10  -0.09   0.05
  22   1    -0.10   0.07   0.04    -0.01   0.01  -0.05    -0.06   0.01   0.00
  23   1     0.07   0.01   0.03    -0.18   0.01   0.00    -0.04   0.04  -0.01
  24   1     0.13   0.01   0.06    -0.07   0.02  -0.04    -0.01   0.04  -0.04
  25   1    -0.08   0.05   0.14     0.09   0.04  -0.10     0.04   0.03  -0.06
  26   1    -0.18   0.08   0.10     0.08   0.04  -0.09    -0.02   0.01  -0.02
  27   6     0.21  -0.04   0.00    -0.03  -0.02   0.00     0.00   0.00   0.03
  28   1     0.31   0.12   0.09    -0.03   0.07  -0.06     0.00  -0.07   0.09
  29   1     0.10  -0.08  -0.01    -0.15  -0.06   0.01     0.12   0.05   0.05
  30   1     0.36  -0.16  -0.08     0.03  -0.10   0.05    -0.06   0.08  -0.06
  31   6     0.09   0.00   0.06     0.22   0.05  -0.03    -0.24  -0.15   0.01
  32   1     0.00   0.03   0.09     0.25   0.10  -0.05    -0.36  -0.25   0.08
  33   1     0.16   0.04   0.12     0.25   0.14  -0.07    -0.18  -0.14   0.08
  34   1     0.13  -0.05   0.00     0.31  -0.04   0.01    -0.28  -0.12  -0.15
                     7                      8                      9
                     A                      A                      A
 Frequencies --    79.2652                86.8571               102.2553
 Red. masses --     3.9424                 5.3427                 3.0254
 Frc consts  --     0.0146                 0.0237                 0.0186
 IR Inten    --     4.2163                13.9278                 3.4758
 Atom AN      X      Y      Z        X      Y      Z        X      Y      Z
   1   6     0.11   0.00  -0.04    -0.02   0.05   0.04    -0.06   0.08  -0.08
   2   6     0.12  -0.01  -0.05    -0.01   0.03   0.05     0.00   0.04  -0.12
   3   6    -0.03  -0.03   0.00     0.16   0.02   0.02    -0.09  -0.01  -0.02
   4   6    -0.16  -0.06   0.02     0.25   0.04   0.04    -0.12  -0.01   0.04
   5   7    -0.04  -0.03   0.02     0.10   0.02   0.05     0.07   0.05   0.05
   6   6     0.01  -0.03   0.00     0.03   0.00   0.04     0.09   0.05   0.03
   7   8     0.12   0.01  -0.01    -0.11  -0.02   0.03     0.08   0.07   0.02
   8   8    -0.10  -0.06   0.00     0.13  -0.02   0.03     0.14   0.03   0.02
   9   6     0.06   0.00   0.01    -0.02  -0.09  -0.04    -0.15  -0.10  -0.04
  10   1     0.13   0.18   0.14    -0.09  -0.24  -0.18    -0.24  -0.38  -0.19
  11   1     0.24  -0.08  -0.12    -0.19   0.01   0.05    -0.42   0.07   0.07
  12   1    -0.09  -0.06   0.00     0.13  -0.09  -0.04     0.02  -0.08  -0.04
  13   1     0.04  -0.02  -0.01     0.10   0.01   0.06     0.19   0.08   0.00
  14   6     0.07   0.08   0.07     0.02   0.03  -0.05    -0.02  -0.04   0.06
  15   6     0.17   0.14   0.04    -0.04   0.02  -0.06    -0.02  -0.03   0.05
  16   1     0.03   0.03   0.10     0.03   0.01  -0.05    -0.08  -0.10   0.10
  17   1     0.10   0.11   0.12     0.00   0.03  -0.04     0.08  -0.02   0.10
  18   6    -0.01   0.04  -0.01    -0.14  -0.03  -0.07     0.00  -0.04   0.02
  19   1     0.31   0.22   0.05     0.00   0.03  -0.06    -0.02  -0.01   0.05
  20   8    -0.17  -0.07  -0.07    -0.31  -0.10  -0.12     0.01  -0.08   0.02
  21   7     0.00   0.03  -0.02    -0.04   0.03  -0.01     0.01  -0.01   0.00
  22   1    -0.33  -0.08   0.05     0.41   0.06   0.02    -0.26  -0.06   0.08
  23   1     0.09  -0.02  -0.05     0.03   0.05   0.04    -0.18   0.13  -0.02
  24   1     0.04  -0.02  -0.04     0.01   0.06   0.04    -0.05   0.14  -0.16
  25   1     0.19   0.01  -0.09    -0.09   0.00   0.06     0.10   0.04  -0.22
  26   1    -0.08  -0.04   0.02     0.24   0.01  -0.01    -0.17  -0.08  -0.01
  27   6    -0.16  -0.06   0.01    -0.04  -0.07   0.00    -0.01   0.01   0.00
  28   1    -0.22  -0.15  -0.06    -0.01   0.03   0.00     0.00   0.06  -0.02
  29   1    -0.15  -0.07  -0.02    -0.17  -0.13  -0.04    -0.07   0.00   0.01
  30   1    -0.22  -0.04   0.14     0.05  -0.18   0.05     0.03  -0.03   0.00
  31   6     0.05   0.07   0.03     0.07   0.10   0.06     0.05  -0.01  -0.03
  32   1     0.06   0.13   0.01     0.01   0.20   0.07     0.09   0.00  -0.05
  33   1     0.05   0.08   0.02     0.14   0.17   0.11     0.03   0.01  -0.07
  34   1     0.08   0.04   0.08     0.15   0.01   0.07     0.06  -0.02   0.01
                    10                     11                     12
                     A                      A                      A
 Frequencies --   124.7710               137.3086               143.0295
 Red. masses --     2.8086                 1.5848                 1.2785
 Frc consts  --     0.0258                 0.0176                 0.0154
 IR Inten    --     2.8946                 0.2486                 0.2426
 Atom AN      X      Y      Z        X      Y      Z        X      Y      Z
   1   6     0.04  -0.10   0.08    -0.03   0.02   0.01     0.01  -0.01   0.00
   2   6    -0.02  -0.05   0.11    -0.02   0.01   0.01     0.03   0.00  -0.01
   3   6    -0.06   0.02   0.03    -0.05   0.00   0.02     0.04   0.00  -0.01
   4   6    -0.05   0.00  -0.08     0.00   0.01  -0.01     0.00  -0.01   0.01
   5   7     0.02  -0.03  -0.11     0.17   0.02  -0.03    -0.10  -0.01   0.02
   6   6     0.04  -0.02  -0.08     0.04  -0.01  -0.03    -0.02   0.00   0.02
   7   8     0.05  -0.08  -0.03    -0.04  -0.03  -0.02     0.02   0.02   0.01
   8   8     0.07   0.13  -0.04     0.00   0.02  -0.02     0.01  -0.02   0.01
   9   6    -0.10   0.11   0.12     0.00   0.03   0.04     0.02  -0.02  -0.03
  10   1    -0.22  -0.20  -0.10     0.15   0.20   0.39    -0.04  -0.07  -0.17
  11   1    -0.37   0.16   0.45     0.24  -0.01  -0.26    -0.06  -0.01   0.09
  12   1     0.17   0.35   0.12    -0.39  -0.07   0.04     0.18   0.01  -0.03
  13   1    -0.01  -0.03  -0.10     0.25   0.02  -0.04    -0.13  -0.01   0.02
  14   6     0.00   0.00   0.02     0.00  -0.01   0.02     0.00   0.01   0.02
  15   6     0.05   0.03   0.00    -0.01   0.00   0.01     0.00   0.02   0.00
  16   1     0.03   0.02   0.01    -0.02  -0.03   0.03     0.00  -0.01   0.03
  17   1    -0.05   0.01   0.03     0.01   0.00   0.04     0.01   0.02   0.04
  18   6     0.00   0.01  -0.01    -0.01  -0.01  -0.01     0.00   0.01  -0.01
  19   1     0.09   0.06   0.01    -0.02   0.01   0.01     0.00   0.04   0.00
  20   8    -0.05  -0.02  -0.03    -0.01  -0.02  -0.01     0.02   0.01  -0.01
  21   7     0.01   0.00   0.00    -0.02  -0.01  -0.01    -0.01   0.00  -0.01
  22   1    -0.08   0.03  -0.11    -0.09   0.00   0.00     0.04  -0.01   0.00
  23   1     0.11  -0.13   0.04    -0.04   0.03   0.02     0.00  -0.02  -0.01
  24   1     0.03  -0.15   0.14    -0.02   0.04  -0.01    -0.01  -0.02   0.01
  25   1    -0.06  -0.03   0.20    -0.02   0.01   0.00     0.04   0.00  -0.02
  26   1    -0.11   0.10   0.06    -0.12   0.00   0.04     0.09   0.00  -0.03
  27   6    -0.01  -0.02   0.00     0.01  -0.02  -0.01     0.03  -0.01  -0.01
  28   1    -0.01  -0.01  -0.01     0.09   0.20  -0.01     0.13   0.29  -0.01
  29   1    -0.03  -0.03   0.00    -0.19  -0.08   0.00    -0.26  -0.10  -0.01
  30   1     0.00  -0.04   0.02     0.18  -0.18  -0.03     0.27  -0.25  -0.04
  31   6     0.00   0.01   0.02    -0.03  -0.01   0.01    -0.04   0.01   0.03
  32   1     0.06   0.04  -0.01     0.19   0.05  -0.08     0.32   0.10  -0.13
  33   1    -0.05  -0.04  -0.01    -0.20  -0.16  -0.10    -0.32  -0.24  -0.16
  34   1    -0.02   0.04   0.09    -0.09   0.10   0.25    -0.15   0.18   0.41
                    13                     14                     15
                     A                      A                      A
 Frequencies --   151.6277               169.5717               233.6363
 Red. masses --     1.1174                 2.1046                 3.6977
 Frc consts  --     0.0151                 0.0357                 0.1189
 IR Inten    --     0.5212                 1.2711                15.5012
 Atom AN      X      Y      Z        X      Y      Z        X      Y      Z
   1   6     0.00   0.00   0.00     0.03  -0.05   0.01    -0.10  -0.06   0.00
   2   6     0.01   0.00   0.00     0.02  -0.02   0.01    -0.15  -0.05   0.02
   3   6     0.01   0.00   0.00     0.03   0.00  -0.02    -0.09  -0.02  -0.02
   4   6    -0.01  -0.01   0.00    -0.02  -0.01  -0.02     0.07   0.01  -0.02
   5   7     0.01   0.00   0.00    -0.16  -0.02  -0.01     0.02   0.06   0.01
   6   6     0.00  -0.01   0.00     0.00   0.02   0.01    -0.01   0.07   0.05
   7   8     0.01  -0.01   0.00    -0.01   0.00   0.02    -0.03   0.09   0.03
   8   8    -0.02  -0.01   0.00     0.18   0.07   0.01    -0.02   0.02   0.04
   9   6     0.00   0.00   0.01    -0.07  -0.03  -0.01     0.01   0.00  -0.07
  10   1    -0.02  -0.01  -0.03     0.10   0.02   0.43     0.00   0.04  -0.12
  11   1    -0.02   0.00   0.06     0.08   0.06  -0.45     0.00   0.02  -0.11
  12   1     0.04   0.03   0.01    -0.58  -0.24  -0.01     0.05  -0.09  -0.07
  13   1     0.02   0.00  -0.01    -0.23  -0.01   0.00    -0.10   0.06   0.03
  14   6     0.00   0.01   0.03    -0.01   0.00   0.01    -0.08  -0.05   0.07
  15   6     0.01   0.02   0.01     0.01   0.01   0.00     0.14   0.09   0.00
  16   1     0.00   0.00   0.03     0.01   0.00   0.00    -0.17  -0.12   0.12
  17   1     0.01   0.02   0.04    -0.02   0.00   0.02    -0.09   0.01   0.17
  18   6     0.00   0.01   0.00     0.00   0.01   0.00     0.13   0.05  -0.07
  19   1    -0.01   0.04   0.01     0.02   0.02   0.00     0.37   0.22   0.02
  20   8     0.02   0.04   0.01     0.00   0.01   0.00     0.02  -0.03  -0.11
  21   7    -0.03  -0.01  -0.01     0.00   0.00   0.00     0.18   0.01  -0.02
  22   1    -0.03  -0.01   0.00     0.04   0.00  -0.03     0.23   0.01  -0.02
  23   1     0.00   0.00   0.00     0.04  -0.06  -0.01    -0.11  -0.03   0.03
  24   1    -0.01   0.00   0.00     0.00  -0.07   0.04    -0.12  -0.05  -0.01
  25   1     0.02   0.00  -0.01     0.02  -0.01   0.03    -0.25  -0.06   0.09
  26   1     0.00   0.00   0.00     0.10   0.03  -0.04    -0.12  -0.03  -0.01
  27   6     0.00  -0.04  -0.01     0.00   0.00   0.00     0.02  -0.13   0.02
  28   1     0.12   0.36  -0.02     0.01   0.04   0.00    -0.04  -0.20  -0.06
  29   1    -0.40  -0.16  -0.01    -0.04  -0.02   0.00    -0.01  -0.16  -0.02
  30   1     0.31  -0.36  -0.01     0.03  -0.03   0.00    -0.02  -0.14   0.17
  31   6    -0.01  -0.01  -0.02     0.00   0.00  -0.01    -0.06  -0.05   0.04
  32   1    -0.33  -0.09   0.12    -0.08  -0.02   0.03    -0.18  -0.13   0.10
  33   1     0.24   0.21   0.14     0.06   0.06   0.04    -0.04  -0.14   0.15
  34   1     0.08  -0.16  -0.36     0.02  -0.03  -0.09    -0.17   0.05  -0.10
                    16                     17                     18
                     A                      A                      A
 Frequencies --   263.0525               281.9928               295.5525
 Red. masses --     2.7328                 3.9887                 3.1990
 Frc consts  --     0.1114                 0.1869                 0.1646
 IR Inten    --     1.5156                 8.1865                 7.0287
 Atom AN      X      Y      Z        X      Y      Z        X      Y      Z
   1   6    -0.06  -0.01   0.07    -0.04   0.13  -0.02     0.02  -0.11   0.09
   2   6     0.09   0.05  -0.02     0.01   0.13  -0.04     0.12  -0.07   0.03
   3   6     0.06   0.03   0.01     0.02   0.04   0.07     0.12  -0.01  -0.07
   4   6    -0.06   0.01   0.04     0.02   0.04   0.11    -0.10  -0.05  -0.06
   5   7     0.01  -0.02   0.02    -0.08  -0.09   0.06     0.08   0.06  -0.03
   6   6     0.01  -0.02  -0.02     0.01  -0.10  -0.08     0.00   0.06   0.05
   7   8     0.01  -0.02  -0.02     0.01  -0.08  -0.10     0.01   0.04   0.07
   8   8     0.00  -0.01  -0.02     0.04  -0.04  -0.08    -0.03   0.03   0.05
   9   6     0.00   0.00   0.04    -0.01   0.00   0.13     0.00   0.01  -0.08
  10   1     0.00  -0.02   0.05     0.02  -0.07   0.22    -0.01   0.05  -0.13
  11   1     0.00  -0.01   0.06     0.01  -0.05   0.21     0.00   0.03  -0.13
  12   1    -0.01   0.05   0.04    -0.08   0.17   0.13     0.05  -0.10  -0.08
  13   1     0.11  -0.03   0.01    -0.06  -0.12   0.09     0.23   0.09  -0.10
  14   6    -0.03  -0.12   0.14    -0.01   0.01  -0.04    -0.04  -0.04  -0.04
  15   6    -0.08   0.00  -0.09    -0.06  -0.04   0.00    -0.12  -0.08  -0.03
  16   1    -0.04  -0.39   0.19     0.00   0.04  -0.05     0.07   0.04  -0.11
  17   1     0.07   0.01   0.37     0.02  -0.01  -0.08    -0.12  -0.07  -0.11
  18   6    -0.03   0.01  -0.12     0.06   0.03   0.00     0.00   0.01   0.01
  19   1    -0.07   0.08  -0.08    -0.16  -0.09  -0.01    -0.31  -0.16  -0.05
  20   8     0.03   0.11  -0.08     0.00  -0.07  -0.04    -0.03  -0.01  -0.01
  21   7    -0.03  -0.02  -0.05     0.23   0.13   0.02     0.14   0.12   0.02
  22   1    -0.18   0.00   0.05     0.07   0.09   0.07    -0.37  -0.11  -0.01
  23   1    -0.19  -0.01   0.06    -0.11   0.09  -0.08     0.06  -0.08   0.13
  24   1    -0.04   0.01   0.05     0.02   0.14  -0.03    -0.01  -0.11   0.09
  25   1     0.25   0.08  -0.10     0.07   0.11  -0.14     0.22  -0.03   0.03
  26   1     0.13   0.03  -0.01     0.06  -0.03   0.04     0.20   0.08  -0.07
  27   6     0.06  -0.06  -0.05    -0.05  -0.03   0.06    -0.06   0.02   0.05
  28   1     0.03  -0.25   0.03    -0.12   0.00  -0.09    -0.10   0.06  -0.07
  29   1     0.26   0.01  -0.04    -0.22  -0.11   0.00    -0.19  -0.04   0.00
  30   1    -0.07   0.09  -0.09    -0.04  -0.12   0.31    -0.04  -0.06   0.21
  31   6    -0.04   0.06   0.11    -0.09  -0.01  -0.02    -0.07   0.02  -0.02
  32   1    -0.16   0.17   0.14    -0.16  -0.19   0.04    -0.10  -0.10   0.02
  33   1     0.06   0.04   0.25    -0.12  -0.13   0.02    -0.11  -0.07   0.00
  34   1    -0.01   0.02   0.09    -0.26   0.15  -0.19    -0.19   0.14  -0.12
                    19                     20                     21
                     A                      A                      A
 Frequencies --   311.5266               353.4604               364.9189
 Red. masses --     6.2226                 2.8671                 4.0169
 Frc consts  --     0.3558                 0.2110                 0.3152
 IR Inten    --     9.0011                11.1218                 3.0124
 Atom AN      X      Y      Z        X      Y      Z        X      Y      Z
   1   6     0.02   0.12  -0.02     0.09  -0.01  -0.07    -0.06  -0.05   0.03
   2   6    -0.03   0.15   0.01    -0.01  -0.08  -0.01     0.01   0.07  -0.02
   3   6    -0.11   0.14   0.02    -0.13  -0.08   0.02     0.01   0.06   0.00
   4   6    -0.01   0.11  -0.14     0.09  -0.05  -0.03    -0.01   0.05   0.04
   5   7    -0.02  -0.02  -0.19    -0.01  -0.01   0.00     0.01   0.00   0.01
   6   6    -0.02  -0.02   0.04     0.00   0.02   0.01     0.00  -0.01   0.00
   7   8     0.09  -0.32   0.30    -0.03   0.06  -0.04     0.01  -0.03   0.02
   8   8    -0.02  -0.02   0.06    -0.01   0.01   0.01     0.00  -0.01   0.00
   9   6     0.03  -0.08  -0.15     0.00   0.02   0.00     0.00  -0.01   0.01
  10   1     0.02   0.01  -0.21    -0.01   0.02  -0.01     0.01  -0.01   0.02
  11   1     0.04  -0.04  -0.25    -0.01   0.02   0.00     0.01  -0.02   0.02
  12   1     0.08  -0.26  -0.15     0.00   0.01   0.00     0.00   0.00   0.01
  13   1    -0.19   0.00  -0.17    -0.18   0.02   0.02     0.03  -0.04   0.04
  14   6     0.08   0.00   0.05     0.20  -0.09   0.10    -0.07  -0.10  -0.01
  15   6    -0.04  -0.01  -0.01    -0.05  -0.07  -0.06     0.06  -0.01  -0.07
  16   1     0.06  -0.12   0.08     0.16  -0.36   0.16    -0.10  -0.16   0.01
  17   1     0.17   0.04   0.13     0.34   0.02   0.30    -0.07  -0.05   0.06
  18   6     0.00   0.00  -0.02    -0.02  -0.02  -0.01     0.02   0.01   0.01
  19   1    -0.11  -0.02  -0.01    -0.29  -0.09  -0.07     0.23   0.11  -0.05
  20   8     0.01   0.00  -0.02    -0.06   0.10   0.02    -0.18   0.25   0.04
  21   7     0.04   0.03   0.00     0.05   0.06   0.02     0.06  -0.05   0.08
  22   1     0.07   0.19  -0.19     0.28  -0.03  -0.05    -0.04   0.06   0.03
  23   1    -0.05   0.07  -0.08     0.08   0.02  -0.03    -0.13  -0.07   0.00
  24   1     0.09   0.12   0.01     0.14   0.04  -0.13    -0.02  -0.07   0.07
  25   1    -0.02   0.16   0.03    -0.08  -0.10   0.01     0.14   0.11  -0.04
  26   1    -0.23   0.19   0.07    -0.31  -0.11   0.07     0.06   0.04  -0.02
  27   6    -0.01   0.00   0.01    -0.05   0.07   0.03     0.00  -0.01   0.07
  28   1    -0.02  -0.02  -0.02    -0.07   0.13  -0.04    -0.02   0.03   0.01
  29   1    -0.01  -0.01   0.00    -0.14   0.04   0.03    -0.05  -0.04   0.06
  30   1    -0.02   0.00   0.05    -0.03   0.02   0.09     0.01  -0.04   0.11
  31   6    -0.03   0.01   0.02    -0.02   0.02  -0.01     0.14  -0.16  -0.18
  32   1    -0.06   0.00   0.04    -0.02  -0.01   0.00     0.38  -0.29  -0.25
  33   1    -0.02  -0.02   0.05    -0.05  -0.01  -0.01    -0.03  -0.12  -0.44
  34   1    -0.06   0.05  -0.01    -0.07   0.07  -0.03     0.13  -0.14  -0.09
                    22                     23                     24
                     A                      A                      A
 Frequencies --   404.2534               419.8469               458.1010
 Red. masses --     2.5649                 3.7671                 2.5576
 Frc consts  --     0.2470                 0.3912                 0.3162
 IR Inten    --     5.5574                 6.4056                11.4779
 Atom AN      X      Y      Z        X      Y      Z        X      Y      Z
   1   6     0.04   0.19   0.00    -0.04  -0.10   0.00    -0.04   0.08   0.09
   2   6    -0.09  -0.08   0.08     0.08  -0.01  -0.06     0.12  -0.04   0.00
   3   6     0.12  -0.08   0.03    -0.07  -0.07   0.07    -0.07  -0.07   0.07
   4   6    -0.04  -0.10   0.00     0.08  -0.01   0.18     0.04  -0.07  -0.06
   5   7    -0.05  -0.01   0.05     0.02  -0.01   0.15     0.01  -0.03  -0.06
   6   6    -0.02   0.00  -0.04    -0.01   0.01  -0.07     0.00   0.00   0.02
   7   8     0.03  -0.06   0.01     0.04  -0.14   0.04    -0.02   0.04  -0.02
   8   8    -0.02   0.07  -0.04    -0.04   0.16  -0.07     0.00   0.01   0.03
   9   6    -0.02   0.07  -0.08    -0.05   0.15  -0.19     0.00   0.01  -0.01
  10   1    -0.03   0.09  -0.11    -0.07   0.21  -0.25    -0.01   0.02  -0.03
  11   1    -0.03   0.09  -0.12    -0.07   0.21  -0.28    -0.01   0.02  -0.03
  12   1    -0.01   0.01  -0.09     0.00   0.00  -0.19     0.01  -0.03  -0.01
  13   1     0.38   0.07  -0.10    -0.05  -0.11   0.24    -0.34   0.04  -0.03
  14   6    -0.01   0.02   0.05    -0.01  -0.01  -0.04    -0.01   0.13   0.04
  15   6    -0.03   0.01   0.01     0.03  -0.01   0.00    -0.10   0.06   0.05
  16   1     0.02  -0.06   0.05    -0.03   0.05  -0.04     0.03   0.21   0.00
  17   1     0.12   0.03   0.08    -0.10  -0.03  -0.07    -0.08   0.09  -0.03
  18   6     0.00   0.00  -0.02     0.01   0.00   0.01    -0.03   0.04  -0.02
  19   1    -0.03   0.02   0.01     0.06   0.00   0.00    -0.22  -0.07   0.03
  20   8    -0.01   0.03  -0.01     0.00  -0.02   0.01     0.00   0.01  -0.03
  21   7     0.02  -0.02   0.01    -0.02   0.01  -0.01     0.00   0.00   0.01
  22   1    -0.20  -0.14   0.04     0.24  -0.03   0.19     0.18  -0.02  -0.11
  23   1     0.02   0.26   0.12    -0.05  -0.11  -0.02    -0.07   0.11   0.13
  24   1     0.02   0.29  -0.16    -0.03  -0.13   0.04    -0.09   0.15  -0.02
  25   1    -0.46  -0.21   0.12     0.38   0.05  -0.20     0.42  -0.01  -0.21
  26   1     0.25  -0.03  -0.01    -0.15  -0.21   0.07    -0.23  -0.05   0.13
  27   6     0.02  -0.04   0.02    -0.01   0.02  -0.01     0.08  -0.13   0.02
  28   1     0.01  -0.07   0.01     0.00   0.05  -0.01     0.07  -0.28   0.09
  29   1     0.05  -0.03   0.02    -0.03   0.01  -0.02     0.19  -0.11  -0.02
  30   1    -0.01  -0.01   0.03     0.01   0.01  -0.02     0.02  -0.07   0.04
  31   6     0.03  -0.04  -0.03    -0.02   0.03   0.02     0.03  -0.04  -0.07
  32   1     0.07  -0.08  -0.04    -0.04   0.05   0.02     0.10  -0.12  -0.09
  33   1     0.00  -0.04  -0.07     0.00   0.02   0.04    -0.01  -0.02  -0.16
  34   1     0.02  -0.04  -0.02    -0.02   0.02   0.02     0.03  -0.04  -0.07
                    25                     26                     27
                     A                      A                      A
 Frequencies --   482.1731               493.1997               531.0120
 Red. masses --     3.3228                 2.5032                 1.5933
 Frc consts  --     0.4552                 0.3588                 0.2647
 IR Inten    --     3.4014                 7.5911               152.4889
 Atom AN      X      Y      Z        X      Y      Z        X      Y      Z
   1   6     0.01  -0.02  -0.02     0.05  -0.13  -0.10    -0.01  -0.03   0.02
   2   6    -0.03   0.01   0.00    -0.06   0.03  -0.04     0.04  -0.03   0.00
   3   6     0.01   0.01  -0.01     0.01   0.04  -0.09    -0.07   0.00  -0.03
   4   6    -0.01   0.02   0.01    -0.02   0.06   0.07     0.08   0.03  -0.04
   5   7     0.00   0.01   0.01     0.03   0.02   0.06    -0.12   0.06   0.04
   6   6     0.00   0.00   0.00     0.01   0.01  -0.01    -0.01   0.03  -0.01
   7   8     0.00  -0.01   0.00     0.00  -0.02   0.01     0.01  -0.01   0.03
   8   8     0.00   0.00  -0.01     0.00   0.00  -0.01     0.01  -0.04  -0.05
   9   6     0.00   0.00   0.00     0.00   0.00   0.00     0.01  -0.02   0.03
  10   1     0.00   0.00   0.01     0.00   0.00   0.00     0.02  -0.05   0.07
  11   1     0.00   0.00   0.01     0.00   0.00   0.01     0.03  -0.06   0.08
  12   1     0.00   0.01   0.00    -0.01   0.02   0.00    -0.02   0.08   0.03
  13   1     0.06  -0.01   0.01     0.04  -0.08   0.12     0.88   0.08  -0.21
  14   6     0.03  -0.05   0.01     0.06   0.12   0.09     0.00   0.02   0.01
  15   6     0.05  -0.06   0.05    -0.12   0.07   0.03    -0.01   0.00   0.02
  16   1    -0.03  -0.06   0.04     0.06   0.07   0.09     0.02   0.07  -0.01
  17   1     0.09  -0.06   0.01     0.05   0.16   0.16    -0.05   0.00  -0.03
  18   6    -0.07  -0.04   0.11    -0.05   0.04  -0.04     0.02   0.01   0.00
  19   1     0.34  -0.09   0.06    -0.43  -0.10   0.00    -0.06  -0.02   0.01
  20   8    -0.04   0.03   0.16     0.03  -0.02  -0.05     0.00   0.00   0.00
  21   7    -0.01   0.15  -0.09    -0.01   0.01   0.04     0.00   0.00  -0.01
  22   1    -0.03   0.01   0.02    -0.09   0.01   0.11     0.11   0.01  -0.03
  23   1     0.01  -0.02  -0.02     0.23  -0.24  -0.24    -0.01   0.03   0.10
  24   1     0.04  -0.02  -0.01    -0.08  -0.32   0.12    -0.02   0.00  -0.03
  25   1    -0.10   0.00   0.05    -0.28   0.02   0.16     0.14   0.01  -0.02
  26   1     0.05   0.01  -0.03     0.06  -0.01  -0.11    -0.23   0.00   0.02
  27   6     0.11  -0.18  -0.10     0.05  -0.08   0.06     0.01  -0.01  -0.01
  28   1     0.15  -0.41   0.11     0.04  -0.19   0.10     0.00  -0.02   0.00
  29   1     0.25  -0.24  -0.33     0.12  -0.06   0.04     0.01  -0.01   0.00
  30   1     0.08  -0.18   0.00     0.00  -0.04   0.08     0.00   0.00  -0.01
  31   6    -0.08   0.16  -0.13     0.03  -0.04  -0.05     0.00   0.00   0.00
  32   1    -0.08   0.11  -0.12     0.10  -0.14  -0.06     0.00   0.00   0.00
  33   1    -0.11   0.08  -0.11    -0.01   0.00  -0.14     0.00   0.00   0.00
  34   1    -0.15   0.23  -0.16     0.03  -0.05  -0.06     0.00   0.00   0.00
                    28                     29                     30
                     A                      A                      A
 Frequencies --   551.4726               589.0593               638.2642
 Red. masses --     3.0926                 3.1633                 7.4770
 Frc consts  --     0.5541                 0.6467                 1.7946
 IR Inten    --     2.8278                 7.3116               123.7622
 Atom AN      X      Y      Z        X      Y      Z        X      Y      Z
   1   6     0.00   0.00  -0.01    -0.01  -0.03  -0.04     0.00  -0.02  -0.04
   2   6    -0.02   0.00  -0.01    -0.02   0.11  -0.03    -0.02   0.11  -0.02
   3   6     0.01   0.01  -0.02     0.01   0.01   0.08     0.04  -0.01   0.09
   4   6    -0.01   0.01   0.02     0.05  -0.01  -0.03     0.00  -0.03  -0.03
   5   7     0.02   0.00   0.01     0.01  -0.14  -0.06    -0.16  -0.16  -0.03
   6   6     0.01   0.00   0.00    -0.17  -0.15   0.06     0.63   0.08   0.03
   7   8     0.00  -0.01   0.00     0.05   0.08  -0.10    -0.18   0.00  -0.04
   8   8     0.00   0.00  -0.01     0.02   0.09   0.18    -0.15   0.02   0.11
   9   6     0.00   0.00   0.00    -0.01   0.03  -0.03    -0.02   0.05  -0.04
  10   1     0.00   0.00   0.00    -0.04   0.11  -0.15    -0.07   0.14  -0.19
  11   1     0.00   0.00   0.01    -0.05   0.14  -0.19    -0.05   0.12  -0.14
  12   1     0.00   0.01   0.00     0.09  -0.27  -0.04     0.12  -0.21  -0.04
  13   1    -0.15  -0.01   0.06     0.65  -0.15  -0.21     0.32  -0.06  -0.22
  14   6    -0.01   0.06   0.06     0.00   0.01   0.00    -0.02  -0.01   0.00
  15   6    -0.01  -0.04   0.18     0.00   0.00   0.01     0.00   0.00   0.00
  16   1     0.04   0.33   0.00    -0.03   0.01   0.01    -0.04  -0.04   0.01
  17   1    -0.10  -0.06  -0.17     0.00   0.01   0.01     0.01   0.00   0.03
  18   6     0.14  -0.04   0.03     0.01  -0.01   0.00     0.03   0.02   0.01
  19   1    -0.48  -0.26   0.13    -0.03  -0.02   0.01    -0.05  -0.03   0.00
  20   8    -0.14   0.11   0.02    -0.01   0.01   0.00    -0.01   0.00   0.00
  21   7     0.10  -0.09  -0.13     0.01  -0.01  -0.01    -0.01   0.00   0.00
  22   1    -0.02   0.00   0.03    -0.08   0.08  -0.10    -0.06   0.05  -0.09
  23   1     0.03  -0.02  -0.04    -0.01  -0.15  -0.21     0.00  -0.13  -0.20
  24   1    -0.07  -0.04   0.01     0.00  -0.15   0.14     0.04  -0.13   0.14
  25   1    -0.08  -0.01   0.02    -0.06   0.10  -0.02    -0.08   0.08  -0.02
  26   1     0.01  -0.01  -0.03    -0.06  -0.03   0.10     0.04  -0.02   0.09
  27   6     0.00   0.00  -0.17     0.00   0.00  -0.01     0.00   0.00   0.00
  28   1    -0.04   0.03  -0.28     0.00   0.00  -0.02     0.00  -0.01   0.01
  29   1    -0.01   0.07  -0.01     0.00   0.00   0.00     0.01  -0.01  -0.01
  30   1    -0.03   0.05  -0.23     0.00   0.00  -0.01     0.00  -0.01  -0.01
  31   6     0.01  -0.03   0.07     0.00   0.00   0.00     0.00   0.00   0.00
  32   1    -0.11   0.18   0.08    -0.01   0.01   0.01     0.00   0.00   0.00
  33   1     0.07  -0.16   0.26     0.00  -0.01   0.02     0.00   0.01  -0.01
  34   1    -0.01   0.01   0.13     0.00   0.00   0.01     0.00   0.00   0.00
                    31                     32                     33
                     A                      A                      A
 Frequencies --   656.2735               747.3599               767.3486
 Red. masses --     2.9388                 2.5093                 1.4428
 Frc consts  --     0.7457                 0.8258                 0.5005
 IR Inten    --     0.7437                 7.8670                33.0938
 Atom AN      X      Y      Z        X      Y      Z        X      Y      Z
   1   6     0.01   0.01   0.00    -0.03  -0.02  -0.04     0.04  -0.03  -0.05
   2   6    -0.01   0.00   0.00     0.01   0.12  -0.04    -0.08   0.04   0.02
[...]
 0000530,-0.00000034,-0.00001892,-0.00000526,-0.00000819,0.00003546,-0.
 00000479,0.00009482,0.00151996,-0.00151262,-0.00472214,-0.00000261,0.0
 0000921,-0.00000922,0.00000663,-0.00002626,-0.00001206,-0.00009913,0.0
 0104147,0.00038537,0.00412535,-0.00698217,-0.00156157,0.00007644,-0.00
 016157,-0.00008698,-0.00083750,0.00663240,0.00178319,-0.00002740,0.000
 00592,0.00001814,-0.00000683,0.00000227,-0.00000008,0.00001019,0.00000
 050,-0.00000441,0.00000935,-0.00000500,0.00000128,0.00002404,0.0000060
 0,-0.00000581,0.06054134,-0.23515165,0.08528444,0.01126171,-0.01177938
 ,0.00158748,-0.07563766,0.27507431,-0.00021690,-0.00004220,-0.00012273
 ,-0.00001127,0.00017069,0.00019219,0.00003551,-0.00035565,-0.00005785,
 -0.00000744,0.00044087,-0.00051874,-0.00000566,-0.00050630,0.00050264,
 -0.00008026,0.00057536,-0.00013860,0.00003276,-0.00019721,-0.00004683,
 0.00005988,-0.00012054,0.00012977,-0.00005183,0.00006539,-0.00000411,-
 0.00001258,-0.00000758,0.00000321,0.00001216,-0.00000527,0.00000041,0.
 00000715,-0.00001684,-0.00000347,0.00003210,-0.00001346,-0.00003376,0.
 00021058,-0.00015737,-0.00008625,0.00197486,-0.00237455,-0.00384475,-0
 .00001351,0.00000344,-0.00000147,-0.00000275,-0.00000802,0.00000095,0.
 00170264,0.00022738,-0.00418633,0.00447510,-0.00675797,-0.00384335,-0.
 00015020,-0.00029358,0.00069962,-0.00864147,0.02191931,-0.00812738,-0.
 00000527,0.00002210,0.00004768,0.00001262,-0.00000061,-0.00000757,0.00
 002599,0.00000101,-0.00001376,0.00001501,-0.00002626,0.00001575,0.0000
 1743,0.00000012,0.00002211,-0.02594831,0.08289513,-0.07576949,0.002165
 35,-0.00615155,0.00429800,0.02405802,-0.08810526,0.09118202,0.00007079
 ,0.00000254,0.00002218,-0.00002026,-0.00004102,-0.00006528,-0.00000820
 ,0.00007127,0.00001679,0.00010680,-0.00002585,-0.00002033,-0.00003329,
 -0.00003149,0.00008419,-0.00001053,0.00004536,0.00013169,0.00005153,0.
 00000529,-0.00013157,-0.00001533,0.00002072,-0.00003277,0.00001453,-0.
 00001467,-0.00000010,0.00000428,0.00000219,-0.00000422,-0.00000332,0.0
 0000176,0.00000063,-0.00000256,0.00000315,-0.00000006,-0.00000287,0.00
 000149,0.,-0.00009474,0.00002159,0.00005063,0.00001616,-0.00010539,0.0
 0006539,0.00000286,0.00000062,0.00000067,0.00000714,-0.00000172,-0.000
 00351,0.00013713,0.00010711,0.00021170,-0.00000104,-0.00001105,-0.0000
 3362,-0.00008538,0.00001673,-0.00000780,0.00236440,-0.00169147,-0.0051
 5533,0.00015405,-0.00006841,-0.00005301,-0.00000352,-0.00000084,0.0000
 0230,-0.00000202,0.00000004,0.00000088,-0.00000174,0.00000042,0.000000
 28,-0.00000045,0.00000106,-0.00000349,-0.16178945,-0.11976557,-0.03521
 649,-0.02804159,-0.01761366,-0.00033009,0.00534243,-0.00091362,0.00087
 564,0.18214149,0.00003174,0.00002060,0.00002263,-0.00001880,-0.0000432
 8,-0.00005325,0.00000078,0.00009044,0.00002952,-0.00002258,-0.00007870
 ,0.00004226,0.00000470,-0.00000873,-0.00005771,0.00000890,0.00015761,0
 .00002003,0.00006531,-0.00007728,-0.00007084,0.00000600,-0.00002878,-0
 .00000035,-0.00000897,0.00001447,0.00000381,-0.00000213,0.00000021,0.0
 0000026,0.00000112,-0.00000123,0.00000009,0.00000273,-0.00000347,-0.00
 000075,0.00002499,-0.00000607,-0.00000554,-0.00007419,-0.00001079,-0.0
 0003208,0.00035117,-0.00000349,-0.00006958,0.00000675,-0.00000513,-0.0
 0000548,-0.00000530,0.00000561,0.00000594,0.00001557,-0.00014748,-0.00
 043468,-0.00008193,-0.00008849,0.00001123,-0.00006411,-0.00003343,0.00
 005544,-0.00172957,0.00244897,-0.00481017,0.00003721,-0.00000595,-0.00
 000473,-0.00000057,0.00000213,-0.00000250,-0.00000557,-0.00000285,0.00
 000145,0.00000161,-0.00000084,0.00000152,0.00000020,-0.00000192,0.0000
 0360,-0.11971996,-0.15930788,-0.03489403,-0.00087219,0.00533925,0.0009
 2096,-0.01755756,-0.02711952,-0.00071788,0.13950099,0.17835590,0.00024
 344,0.00003786,0.00009039,-0.00004486,-0.00013778,-0.00019095,-0.00003
 330,0.00025502,0.00007022,-0.00002013,-0.00024401,0.00025137,0.0000222
 4,0.00024611,-0.00027067,0.00006109,-0.00032600,-0.00018812,-0.0000892
 2,0.00012572,0.00015669,0.00001139,0.00003800,0.00002673,0.00001073,-0
 .00002415,0.00000222,0.00000117,-0.00000110,-0.00000177,-0.00000071,0.
 00000172,-0.00000065,-0.00000351,0.00000241,0.00000160,-0.00001733,-0.
 00000107,-0.00000016,-0.00029338,0.00015482,0.00021181,0.00025081,-0.0
 0060524,0.00045090,0.00001118,0.00002871,-0.00000532,0.00001838,-0.000
 00191,0.00000013,-0.00272394,0.00082472,-0.00011675,0.00006769,-0.0000
 8427,-0.00001270,0.00022318,0.00029194,0.00007719,-0.01479574,-0.01865
 815,-0.01348060,0.00003994,-0.00000689,-0.00003290,-0.00002334,0.00000
 457,0.00000363,-0.00002010,-0.00000496,0.00000840,-0.00000247,0.000012
 42,-0.00000577,-0.00000262,0.00000066,-0.00000777,-0.03456239,-0.03373
 424,-0.04866866,0.00705939,0.00504026,0.00325662,0.00485608,0.00625948
 ,0.00309162,0.04066603,0.04015529,0.05594341,0.00024122,0.00001213,0.0
 0005309,0.00006116,-0.00005305,-0.00006342,-0.00002372,-0.00000977,0.0
 0001925,-0.00004896,0.00001168,0.00002833,0.00009837,0.00002219,-0.000
 07501,-0.00052281,-0.00000400,0.00039568,0.00012380,0.00000459,-0.0001
 5024,0.00002951,0.00009593,-0.00016464,-0.00008579,-0.00018783,0.00007
 455,-0.00032248,-0.00016655,0.00022403,-0.00000710,-0.00000385,-0.0000
 0443,0.00000391,0.00001903,0.00001514,-0.00010589,0.00002691,0.0000658
 8,-0.00054299,0.00065001,-0.00026061,0.00026933,0.00088570,0.00305608,
 0.00007556,-0.00004815,-0.00002251,-0.00005114,0.00007062,0.00006241,-
 0.01347263,0.02657380,-0.00527208,0.00012812,0.00001405,-0.00000544,-0
 .00355554,0.00370872,0.00079602,-0.06173044,0.04112089,-0.01487507,-0.
 00003490,-0.00001445,-0.00002935,-0.00001051,-0.00000664,0.00001447,-0
 .00001061,0.00000626,0.00001468,-0.00001850,0.00002988,-0.00001377,-0.
 00001003,-0.00000106,-0.00003023,-0.00470891,0.00479665,-0.00956374,0.
 00068126,-0.00024448,0.00104390,0.00046744,0.00011980,-0.00045432,0.00
 003669,0.00041104,-0.00124709,0.51900575,-0.00051070,-0.00010850,-0.00
 023299,0.00014464,0.00036276,0.00049082,0.00004523,-0.00084999,-0.0000
 9836,-0.00012753,0.00092203,-0.00102162,0.00010346,-0.00108167,0.00097
 235,-0.00058134,0.00154797,-0.00030416,0.00028810,-0.00051969,-0.00003
 236,0.00035670,-0.00033337,0.00026949,-0.00030215,0.00010917,0.0000436
 6,-0.00040182,-0.00018507,0.00024233,0.00006186,-0.00003789,-0.0000182
 1,0.00004391,-0.00004362,0.00001156,0.00001688,-0.00000079,0.00001212,
 0.00079331,-0.00011249,-0.00023287,0.00018464,0.00113260,-0.00018087,0
 .00001157,-0.00000240,0.00001385,-0.00008424,0.00001071,0.00001027,0.0
 1293444,-0.02680509,0.00250435,0.00006290,-0.00004750,-0.00012833,0.00
 303357,-0.00335643,-0.00307127,0.05850490,-0.22368447,0.07481397,-0.00
 001010,0.00001639,0.00001401,0.00003443,-0.00000751,0.00000274,0.00005
 431,0.00001177,-0.00001408,0.00000758,-0.00001120,0.00000805,0.0000415
 3,0.00000122,-0.00001448,0.00091986,0.00126737,0.01305307,-0.00019314,
 0.00032025,0.00136722,0.00020772,-0.00019636,-0.00077619,0.00036890,0.
 00072843,0.00027521,-0.01170313,0.52326657,0.00089954,0.00014946,0.000
 37904,-0.00014021,-0.00058515,-0.00077202,-0.00012161,0.00114905,0.000
 25263,0.00008023,-0.00117910,0.00123574,0.00000006,0.00126807,-0.00120
 424,0.00026067,-0.00157134,-0.00011039,-0.00026404,0.00056870,0.000362
 95,-0.00009879,0.00028689,-0.00014764,0.00022259,-0.00010630,-0.000023
 72,0.00007785,0.00003865,-0.00004047,-0.00002047,0.00001389,-0.0000026
 5,-0.00001559,0.00003371,0.00000454,-0.00009021,0.00000609,0.00004464,
 -0.00079355,0.00018041,0.00088546,0.00270631,-0.00268893,-0.00113984,0
 .00006459,0.00007951,-0.00001117,0.00002033,-0.00004780,-0.00005681,-0
 .00302649,-0.00835342,0.01242675,0.00008577,-0.00006034,-0.00004821,0.
 00261472,-0.00233832,-0.00100974,-0.01699879,0.07016128,-0.11743149,0.
 00007282,-0.00004841,-0.00010228,-0.00007615,0.00001406,0.00002258,-0.
 00008316,-0.00001659,0.00003775,-0.00002140,0.00005253,-0.00002730,-0.
 00003380,-0.00000230,-0.00003334,-0.00973544,0.03059783,-0.02704094,-0
 .00004048,0.00101220,-0.00226929,-0.00030493,-0.00084624,-0.00341643,-
 0.00076762,0.00020404,-0.00065521,-0.00934499,0.01151356,0.55594515,0.
 00018505,0.00002679,0.00008105,-0.00002174,-0.00011249,-0.00015239,-0.
 00002365,0.00022234,0.00004807,0.00001271,-0.00023501,0.00024657,0.000
 00165,0.00026937,-0.00023911,0.00003994,-0.00037949,-0.00014335,-0.000
 08574,0.00016145,0.00011730,0.00000998,0.00007098,0.00001595,0.0000112
 9,-0.00006078,0.00000619,0.00002228,0.00000835,-0.00001381,-0.00000386
 ,0.00000491,0.00000286,-0.00001340,0.00000411,0.00000392,-0.00002763,0
 .00000531,0.00000825,-0.00021623,0.00010764,0.00013831,0.00027572,-0.0
 0058918,0.00015843,0.00001242,0.00001021,-0.00000148,0.00001275,-0.000
 00150,-0.00000423,-0.00091848,0.00215054,-0.00191775,0.00004659,-0.000
 00636,0.00000770,-0.00259202,0.00177041,0.00153641,0.00108237,-0.00093
 242,-0.00703006,0.00001182,-0.00001155,-0.00001983,-0.00001608,0.00000
 460,0.00000365,-0.00001647,-0.00000259,0.00000818,-0.00000472,0.000012
 65,-0.00000672,-0.00000827,-0.00000039,-0.00000765,0.00001829,0.000868
 55,-0.00022941,0.00001409,-0.00001058,0.00005083,0.00003004,-0.0000357
 4,-0.00013861,0.00000289,-0.00000159,0.00007819,-0.07211135,-0.0185974
 9,-0.08233725,0.07950383,-0.00010639,-0.00001672,-0.00003654,0.0000206
 3,0.00005336,0.00007985,0.00001419,-0.00008407,-0.00003623,-0.00000091
 ,0.00006295,-0.00004322,-0.00000787,-0.00003035,0.00004727,0.00004501,
 -0.00000672,0.00001125,-0.00003302,0.00000176,-0.00002797,-0.00002085,
 -0.00001619,0.00000235,-0.00000437,0.00001867,-0.00000257,0.00001035,0
 .00000629,-0.00000221,-0.00000047,0.00000161,0.00000008,-0.00000193,-0
 .00000012,-0.00000071,0.00000879,0.00000269,-0.00000268,0.00011767,-0.
 00006805,-0.00008837,-0.00031400,0.00025349,-0.00017631,-0.00000966,-0
 .00001229,0.00000622,0.00000077,-0.00000020,-0.00000154,0.00193945,-0.
 00109873,0.00143876,-0.00004005,0.00004537,0.00001587,0.00200000,-0.00
 142631,-0.00133207,0.00566343,0.00686937,0.02076568,-0.00001287,0.0000
 0382,0.00001341,0.00000981,-0.00000116,-0.00000175,0.00000858,0.000002
 10,-0.00000322,0.00000090,-0.00000524,0.00000181,-0.00000082,0.0000000
 7,0.00000610,0.00139007,-0.00279274,0.00121950,-0.00004499,-0.00004162
 ,-0.00019902,-0.00000704,0.00020304,0.00057606,-0.00002571,-0.00005792
 ,-0.00006423,-0.02012059,-0.05180137,-0.05382391,0.02089380,0.05825260
 ,0.00005952,0.00000488,0.00002831,0.00000771,-0.00003475,-0.00004249,-
 0.00000979,0.00006289,0.00001423,-0.00000998,-0.00007739,0.00008908,0.
 00002217,0.00007764,-0.00010119,-0.00005363,-0.00005319,0.00007741,0.0
 0003302,0.00000768,-0.00001018,0.00001183,0.00002150,-0.00005658,-0.00
 000837,-0.00001725,0.00001563,-0.00001970,-0.00000750,0.00000646,0.000
 00078,-0.00000158,-0.00000461,0.00000806,0.00000650,0.00000427,-0.0000
 2101,0.00000422,0.00001804,-0.00005446,0.00003812,0.00007367,0.0001317
 9,-0.00030291,-0.00009629,0.00000284,0.00000880,0.00000529,0.00000346,
 -0.00000293,-0.00000525,-0.00148501,0.00124684,0.00110121,0.00002448,0
 .00000388,-0.00000717,-0.00010948,0.00015212,-0.00064098,-0.00321089,0
 .00247465,-0.00774980,0.00000351,-0.00000464,-0.00001169,-0.00000619,0
 .00000097,0.00000533,-0.00000481,0.00000042,0.00000498,-0.00000423,0.0
 0000819,-0.00000448,-0.00000302,-0.00000012,-0.00000638,-0.00082037,0.
 00064615,-0.00049975,0.00001396,0.00001951,0.00010494,0.00000040,-0.00
 002604,-0.00009674,0.00003127,0.00000958,0.00003030,-0.08264079,-0.050
 11952,-0.25592237,0.09423343,0.06011859,0.28868303,0.00002750,0.000006
 52,0.00001489,-0.00000331,-0.00002679,-0.00002939,-0.00000440,0.000062
 49,0.00000066,0.00001458,-0.00007488,0.00010048,-0.00001431,0.00009978
 ,-0.00009812,0.00007784,-0.00014799,0.00013038,-0.00001707,0.00003300,
 -0.00005587,-0.00006086,0.00004069,-0.00006238,0.00002858,-0.00001987,
 0.00000079,0.00001643,0.00000866,-0.00000895,-0.00001201,0.00000648,0.
 00000410,-0.00000900,0.00000646,-0.00000123,-0.00000032,-0.00000015,-0
 .00000159,-0.00003769,0.00002541,-0.00000862,-0.00000075,-0.00001367,0
 .00004332,0.00000164,0.00000010,-0.00000227,0.00000009,0.00000239,0.00
 000338,-0.00027740,0.00068703,0.00019653,-0.00000028,0.00001511,0.0000
 1477,0.00011973,0.00004075,-0.00027376,-0.00176680,0.00539880,0.002121
 36,-0.00000416,0.00000098,0.00000205,-0.00000272,-0.00000010,-0.000000
 25,-0.00000386,-0.00000034,0.00000107,-0.00000132,0.00000155,-0.000001
 22,-0.00000421,0.00000045,0.00000130,-0.00079154,0.00115200,-0.0015437
 6,-0.00014883,0.00052362,-0.00071046,0.00001027,-0.00001207,0.00004736
 ,-0.00014451,0.00001384,-0.00008674,-0.17758608,0.07596601,0.10325569,
 0.00641256,-0.00017863,0.00020620,0.19910688,0.00019102,0.00003517,0.0
 0009339,-0.00003223,-0.00014438,-0.00018391,-0.00002740,0.00031031,0.0
 0005218,0.00002980,-0.00033908,0.00037332,-0.00001819,0.00038820,-0.00
 036212,0.00015678,-0.00051248,0.00002652,-0.00010689,0.00016637,0.0000
 6180,-0.00008003,0.00008618,-0.00006298,0.00005265,-0.00004200,-0.0000
 0095,0.00002525,0.00001236,-0.00001635,-0.00001701,0.00000991,0.000004
 37,-0.00001380,0.00001217,-0.00000081,-0.00001400,0.00000251,0.0000088
 9,-0.00015811,-0.00000753,0.00019278,0.00039613,-0.00065875,-0.0005043
 4,0.00000625,0.00001632,0.00000184,0.00001492,-0.00001470,-0.00001736,
 0.00099974,-0.00183698,0.00180830,0.00000894,0.00001693,-0.00000361,-0
 .00018653,0.00034336,0.00018521,0.01485085,-0.00959364,-0.01049543,0.0
 0001484,-0.00001141,-0.00002070,-0.00001617,0.00000340,0.00000412,-0.0
 0002035,-0.00000397,0.00000813,-0.00000488,0.00001141,-0.00000694,-0.0
 0001096,-0.00000034,-0.00000431,0.00195978,-0.00053392,0.00189279,-0.0
 0002077,-0.00055163,0.00101260,-0.00003112,-0.00004042,-0.00019906,0.0
 0003650,-0.00003319,0.00004310,0.07430330,-0.08092475,-0.05602884,0.00
 608502,-0.00216135,-0.00968046,-0.08694498,0.08987493,-0.00008745,-0.0
 0001736,-0.00004227,0.00001627,0.00006925,0.00008694,0.00001275,-0.000
 14726,-0.00002924,-0.00001238,0.00015935,-0.00016936,0.00001177,-0.000
 16779,0.00015984,-0.00006236,0.00018717,0.00003057,0.00004126,-0.00006
 023,-0.00005879,0.00002381,-0.00000960,0.00000866,-0.00000954,-0.00000
 797,0.00000311,0.00000456,-0.00000207,-0.00000310,0.00000084,-0.000000
 08,0.00000252,-0.00000253,-0.00000314,0.00000059,0.00000030,0.00000073
 ,-0.00000421,0.00004436,0.00002687,-0.00010473,-0.00026194,0.00033132,
 0.00038276,-0.00000215,-0.00001117,-0.00000177,-0.00000482,0.00000932,
 0.00001059,0.00012014,0.00179140,-0.00189163,0.00000753,-0.00000120,0.
 00001136,0.00024322,-0.00069315,0.00029154,-0.00823727,0.00451250,0.01
 068911,-0.00001170,0.00000673,0.00001347,0.00000726,-0.00000097,-0.000
 00246,0.00000949,0.00000210,-0.00000392,0.00000242,-0.00000548,0.00000
 301,0.00000462,0.00000038,0.00000296,-0.00203202,0.00132182,-0.0010268
 1,0.00038968,0.00045139,-0.00113742,-0.00000454,0.00001370,0.00010633,
 -0.00006724,-0.00000951,-0.00005176,0.10505420,-0.05916933,-0.11855267
 ,0.01705492,-0.01289740,-0.02354817,-0.11954590,0.06359847,0.13533923,
 -0.00008471,-0.00001361,-0.00003315,-0.00000260,0.00006022,0.00006920,
 0.00000724,-0.00012255,-0.00001863,-0.00001442,0.00014295,-0.00017883,
 -0.00002743,-0.00014836,0.00016632,0.00010182,0.00028432,-0.00002547,0
 .00000902,-0.00013161,-0.00008289,-0.00008542,-0.00003642,0.00011330,-
 0.00041459,0.00003456,0.00017815,0.00024920,-0.00010196,-0.00012447,0.
 00000035,-0.00000322,0.00000034,0.00000446,-0.00000361,-0.00000113,0.0
 0001462,-0.00000768,-0.00000845,0.00009581,-0.00007002,-0.00003392,-0.
 00019896,0.00010218,-0.00013545,-0.00001303,0.00000256,0.00000056,0.00
 000397,-0.00000368,-0.00000069,0.00083376,0.00005306,-0.00025944,-0.00
 001995,-0.00001816,-0.00000363,0.00013879,-0.00020983,0.00011261,0.009
 81474,0.00453078,-0.00019123,0.00000230,0.00000543,0.00000943,0.000003
 72,0.00000213,-0.00000472,0.00000776,0.00000027,-0.00000426,0.00000542
 ,-0.00000753,0.00000400,0.00000743,0.00000091,0.00000394,0.00070212,0.
 00040197,0.00020912,-0.00005941,-0.00000400,-0.00001723,-0.00003511,-0
 .00003027,-0.00001995,-0.00019142,-0.00032039,0.00034594,-0.18626682,-
 0.12167366,0.01395343,-0.01164575,-0.01119339,-0.00633362,-0.02492397,
 -0.01142802,0.00729297,0.21198176,0.00019000,0.00003802,0.00008710,-0.
 00001766,-0.00014043,-0.00016961,-0.00003120,0.00029134,0.00004690,0.0
 0003385,-0.00032701,0.00037427,0.00000405,0.00034290,-0.00035333,0.000
 12088,-0.00039937,0.00009419,-0.00003355,0.00011699,0.00003339,-0.0000
 9700,0.00006391,-0.00007153,-0.00029883,0.00003975,0.00012707,0.000389
 40,-0.00013882,-0.00016075,-0.00001010,0.00000226,-0.00000161,0.000000
 18,0.00001028,-0.00000042,-0.00000776,0.00000328,0.00000920,-0.0002306
 4,0.00011230,0.00006100,0.00030127,-0.00021223,0.00019353,0.00001431,0
 .00000356,-0.00000452,0.00000024,0.00000685,0.00000542,-0.00122204,-0.
 00029241,0.00132564,0.00000369,0.00001969,0.00001036,0.00002517,0.0001
 6386,-0.00094630,-0.00983438,-0.02010110,0.00608372,0.00001328,-0.0000
 0966,-0.00002061,-0.00001197,0.00000029,0.00000415,-0.00002000,-0.0000
 0291,0.00000825,-0.00000627,0.00001279,-0.00000737,-0.00001236,-0.0000
 0010,-0.00000495,-0.00060662,-0.00025838,0.00056438,-0.00000012,-0.000
 03034,0.00003119,0.00002463,0.00003628,-0.00006368,0.00010214,-0.00009
 585,0.00009603,-0.12031861,-0.13959136,0.01036883,-0.01169923,-0.00615
 524,-0.00458459,0.00332751,0.00612165,0.00072045,0.13990673,0.16037091
 ,-0.00005733,-0.00000644,-0.00002033,-0.00000065,0.00002298,0.00003257
 ,0.00000438,-0.00003588,-0.00001329,0.00000826,0.00004105,-0.00003776,
 -0.00000798,-0.00006579,0.00003685,0.00002050,0.00010495,0.00024049,0.
 00006075,-0.00008012,-0.00013273,-0.00002232,0.00000891,-0.00008617,0.
 00027585,-0.00001452,-0.00009227,-0.00007022,0.00015932,-0.00014314,-0
 .00001153,0.00000595,0.00000470,-0.00000545,0.00000273,-0.00000443,0.0
 0001231,-0.00000384,-0.00000436,0.00007040,-0.00005339,-0.00002434,-0.
 00012916,0.00007376,-0.00017957,-0.00000889,0.00000081,0.00000062,0.00
 000195,-0.00000275,-0.00000090,0.00042827,-0.00034393,0.00062935,-0.00
 000819,0.00000231,0.00000288,0.00023424,0.00012998,-0.00016550,0.00592
 158,0.01093256,0.00080512,-0.00000490,0.00000663,0.00000923,0.00000466
 ,-0.00000159,-0.00000176,0.00000395,0.00000034,-0.00000341,0.00000233,
 -0.00000521,0.00000231,0.00000211,0.00000050,0.00000447,0.00049692,0.0
 0087212,-0.00023836,0.00003157,0.00001523,-0.00005785,-0.00003057,-0.0
 0004442,0.00002878,-0.00026784,-0.00031876,0.00001801,0.01329856,0.009
 79499,-0.04158219,-0.02155868,-0.01556341,-0.00145665,0.01628660,0.008
 22061,-0.00051306,-0.01498165,-0.01385528,0.04294410\\0.00000002,0.000
 00147,-0.00000015,0.00000136,0.00000062,0.00000101,-0.00000012,-0.0000
 0197,-0.00000087,-0.00000076,0.00000066,0.00000072,-0.00000027,-0.0000
 0126,-0.00000166,0.00000018,-0.00000032,-0.00000098,-0.00000039,0.0000
 0071,0.00000085,0.00000098,0.00000034,-0.00000016,-0.00000082,-0.00000
 044,-0.00000014,0.00000035,0.,-0.00000005,0.00000031,0.00000020,0.,-0.
 00000013,-0.00000004,0.00000021,-0.00000033,-0.00000112,0.00000026,-0.
 00000060,-0.00000196,-0.00000026,-0.00000029,0.00000041,0.00000162,-0.
 00000045,0.00000033,0.00000027,-0.00000033,0.00000005,-0.00000073,0.00
 000017,0.00000054,-0.00000088,0.00000039,0.00000008,0.,0.00000036,0.00
 000015,0.00000065,-0.00000015,-0.00000039,-0.00000047,0.00000007,0.000
 00019,0.00000018,0.00000026,0.00000122,0.,0.00000077,0.00000028,0.0000
 0033,-0.00000018,0.00000008,-0.00000012,0.00000006,-0.00000009,-0.0000
 0008,0.00000028,0.00000082,0.00000049,0.00000003,0.00000014,-0.0000000
 5,-0.00000028,-0.00000019,0.00000016,-0.00000015,-0.00000052,-0.000000
 19,-0.00000050,0.00000015,0.00000028,0.00000001,-0.00000007,-0.0000000
 7,0.00000012,-0.00000005,-0.00000010,0.00000002,0.,-0.00000003\\\@


 WORK FAITHFULLY FOR EIGHT HOURS A DAY AND DON'T WORRY.
 IN TIME YOU MAY BECOME BOSS AND WORK TWELVE HOURS A DAY
 AND HAVE ALL THE WORRY.
 Job cpu time:  0 days  0 hours  0 minutes 24.8 seconds.
 File lengths (MBytes):  RWF=     13 Int=      0 D2E=      0 Chk=      6 Scr=      1
 Normal termination of Gaussian 03 at Sun Dec 16 19:12:50 2012.
