 Entering Gaussian System, Link 0=g03
 Input=produkt_step1.com
 Output=produkt_step1.log
 Initial command:
 /software/ncbr/softrepo/secret/gaussian/03.E1/x86_64/node/l1.exe /scratch/xdanek7/QM/06_F_analyza_TS/produkt_step1/Gau-17084.inp -scrdir=/scratch/xdanek7/QM/06_F_analyza_TS/produkt_step1/
 Entering Link 1 = /software/ncbr/softrepo/secret/gaussian/03.E1/x86_64/node/l1.exe PID=     17086.
  
 Copyright (c) 1988,1990,1992,1993,1995,1998,2003,2004,2007, Gaussian, Inc.
                  All Rights Reserved.
  
 This is the Gaussian(R) 03 program.  It is based on the
 the Gaussian(R) 98 system (copyright 1998, Gaussian, Inc.),
 the Gaussian(R) 94 system (copyright 1995, Gaussian, Inc.),
 the Gaussian 92(TM) system (copyright 1992, Gaussian, Inc.),
 the Gaussian 90(TM) system (copyright 1990, Gaussian, Inc.),
 the Gaussian 88(TM) system (copyright 1988, Gaussian, Inc.),
 the Gaussian 86(TM) system (copyright 1986, Carnegie Mellon
 University), and the Gaussian 82(TM) system (copyright 1983,
 Carnegie Mellon University). Gaussian is a federally registered
 trademark of Gaussian, Inc.
  
 This software contains proprietary and confidential information,
 including trade secrets, belonging to Gaussian, Inc.
  
 This software is provided under written license and may be
 used, copied, transmitted, or stored only in accord with that
 written license.
  
 The following legend is applicable only to US Government
 contracts under FAR:
  
                    RESTRICTED RIGHTS LEGEND
  
 Use, reproduction and disclosure by the US Government is
 subject to restrictions as set forth in subparagraphs (a)
 and (c) of the Commercial Computer Software - Restricted
 Rights clause in FAR 52.227-19.
  
 Gaussian, Inc.
 340 Quinnipiac St., Bldg. 40, Wallingford CT 06492
  
  
 ---------------------------------------------------------------
 Warning -- This program may not be used in any manner that
 competes with the business of Gaussian, Inc. or will provide
 assistance to any competitor of Gaussian, Inc.  The licensee
 of this program is prohibited from giving any competitor of
 Gaussian, Inc. access to this program.  By using this program,
 the user acknowledges that Gaussian, Inc. is engaged in the
 business of creating and licensing software in the field of
 computational chemistry and represents and warrants to the
 licensee that it is not a competitor of Gaussian, Inc. and that
 it will not use this program in any manner prohibited above.
 ---------------------------------------------------------------
  

 Cite this work as:
 Gaussian 03, Revision E.01,
 M. J. Frisch, G. W. Trucks, H. B. Schlegel, G. E. Scuseria, 
 M. A. Robb, J. R. Cheeseman, J. A. Montgomery, Jr., T. Vreven, 
 K. N. Kudin, J. C. Burant, J. M. Millam, S. S. Iyengar, J. Tomasi, 
 V. Barone, B. Mennucci, M. Cossi, G. Scalmani, N. Rega, 
 G. A. Petersson, H. Nakatsuji, M. Hada, M. Ehara, K. Toyota, 
 R. Fukuda, J. Hasegawa, M. Ishida, T. Nakajima, Y. Honda, O. Kitao, 
 H. Nakai, M. Klene, X. Li, J. E. Knox, H. P. Hratchian, J. B. Cross, 
 V. Bakken, C. Adamo, J. Jaramillo, R. Gomperts, R. E. Stratmann, 
 O. Yazyev, A. J. Austin, R. Cammi, C. Pomelli, J. W. Ochterski, 
 P. Y. Ayala, K. Morokuma, G. A. Voth, P. Salvador, J. J. Dannenberg, 
 V. G. Zakrzewski, S. Dapprich, A. D. Daniels, M. C. Strain, 
 O. Farkas, D. K. Malick, A. D. Rabuck, K. Raghavachari, 
 J. B. Foresman, J. V. Ortiz, Q. Cui, A. G. Baboul, S. Clifford, 
 J. Cioslowski, B. B. Stefanov, G. Liu, A. Liashenko, P. Piskorz, 
 I. Komaromi, R. L. Martin, D. J. Fox, T. Keith, M. A. Al-Laham, 
 C. Y. Peng, A. Nanayakkara, M. Challacombe, P. M. W. Gill, 
 B. Johnson, W. Chen, M. W. Wong, C. Gonzalez, and J. A. Pople, 
 Gaussian, Inc., Wallingford CT, 2004.
 
 ******************************************
 Gaussian 03:  EM64L-G03RevE.01 11-Sep-2007
                16-Dec-2012 
 ******************************************
 -----------------
 # PM3 Freq NoSymm
 -----------------
 1/10=4,30=1,38=1/1,3;
 2/15=1,17=6,18=5,40=1/2;
 3/5=2,11=9,12=1,16=1,25=1,30=1/1;
 4/5=3,11=1,20=7,22=2,24=3,35=1/1,2;
 6/7=2,8=2,9=2,10=2/1;
 7/8=1,25=1,30=1/16;
 1/10=4,30=1/3;
 99//99;
 -------------
 produkt_step1
 -------------
 Symbolic Z-matrix:
 Charge =  0 Multiplicity = 1
 C                    -2.51354   3.02406   0.68852 
 C                    -2.94948   2.93243  -0.62358 
 C                    -2.65185   1.85311  -1.45314 
 C                    -2.03654   0.67243  -1.06059 
 N                    -2.4205   -0.03008   0.11168 
 C                    -1.96467  -1.36068   0.33644 
 O                    -1.45694  -2.10731  -0.48568 
 O                    -2.26379  -1.74279   1.61125 
 C                    -1.87356  -3.03933   2.01499 
 H                    -0.79007  -3.17891   1.93499 
 H                    -2.39281  -3.81325   1.4402 
 H                    -2.18886  -3.05878   3.06116 
 H                    -2.62868   0.52502   0.91835 
 C                    -0.49975   2.96457   0.37468 
 C                    -0.13869   1.89086  -0.43044 
 H                    -0.2467    2.94974   1.43826 
 H                    -0.4825    3.96669  -0.06012 
 C                     0.61068   0.75249   0.14051 
 H                     0.00289   2.07557  -1.50995 
 O                     0.59962   0.45491   1.33154 
 N                     1.47574   0.0039   -0.73871 
 H                    -1.53766   0.04606  -1.83089 
 H                    -2.51408   2.17555   1.37763 
 H                    -2.65593   3.9655    1.22156 
 H                    -3.36679   3.82882  -1.10048 
 H                    -2.72782   2.02717  -2.53485 
 C                     1.06411  -0.06728  -2.15955 
 H                     1.81848  -0.60532  -2.74609 
 H                     0.97383   0.95724  -2.55624 
 H                     0.08474  -0.5644   -2.29417 
 C                     2.06105  -1.2527   -0.22034 
 H                     2.56468  -1.05894   0.73577 
 H                     2.81063  -1.62237  -0.93246 
 H                     1.30833  -2.03993  -0.0638 
 

 GradGradGradGradGradGradGradGradGradGradGradGradGradGradGradGradGradGrad
 Berny optimization.
 Initialization pass.
 Trust Radius=3.00D-01 FncErr=1.00D-07 GrdErr=1.00D-07
 Number of steps in this run=   2 maximum allowed number of steps=   2.
 GradGradGradGradGradGradGradGradGradGradGradGradGradGradGradGradGradGrad

                          Input orientation:                          
 ---------------------------------------------------------------------
 Center     Atomic     Atomic              Coordinates (Angstroms)
 Number     Number      Type              X           Y           Z
 ---------------------------------------------------------------------
    1          6             0       -2.513537    3.024061    0.688518
    2          6             0       -2.949475    2.932429   -0.623584
    3          6             0       -2.651851    1.853113   -1.453142
    4          6             0       -2.036535    0.672428   -1.060595
    5          7             0       -2.420504   -0.030078    0.111681
    6          6             0       -1.964671   -1.360681    0.336437
    7          8             0       -1.456942   -2.107307   -0.485680
    8          8             0       -2.263791   -1.742785    1.611250
    9          6             0       -1.873562   -3.039334    2.014994
   10          1             0       -0.790072   -3.178911    1.934987
   11          1             0       -2.392810   -3.813247    1.440197
   12          1             0       -2.188856   -3.058776    3.061159
   13          1             0       -2.628676    0.525015    0.918351
   14          6             0       -0.499748    2.964569    0.374680
   15          6             0       -0.138685    1.890855   -0.430436
   16          1             0       -0.246702    2.949742    1.438261
   17          1             0       -0.482496    3.966686   -0.060124
   18          6             0        0.610675    0.752493    0.140509
   19          1             0        0.002886    2.075565   -1.509948
   20          8             0        0.599623    0.454913    1.331539
   21          7             0        1.475743    0.003904   -0.738709
   22          1             0       -1.537663    0.046059   -1.830889
   23          1             0       -2.514080    2.175547    1.377633
   24          1             0       -2.655925    3.965504    1.221562
   25          1             0       -3.366792    3.828818   -1.100479
   26          1             0       -2.727817    2.027165   -2.534854
   27          6             0        1.064107   -0.067275   -2.159554
   28          1             0        1.818481   -0.605317   -2.746085
   29          1             0        0.973828    0.957236   -2.556242
   30          1             0        0.084744   -0.564400   -2.294173
   31          6             0        2.061045   -1.252697   -0.220337
   32          1             0        2.564684   -1.058941    0.735771
   33          1             0        2.810631   -1.622368   -0.932458
   34          1             0        1.308327   -2.039926   -0.063799
 ---------------------------------------------------------------------
                    Distance matrix (angstroms):
                    1          2          3          4          5
     1  C    0.000000
     2  C    1.385659   0.000000
     3  C    2.444782   1.393438   0.000000
     4  C    2.969361   2.476296   1.388065   0.000000
     5  N    3.109527   3.097882   2.459390   1.419570   0.000000
     6  C    4.432965   4.508023   3.742096   2.467873   1.424361
     7  O    5.368992   5.257909   4.248378   2.897133   2.366468
     8  O    4.861752   5.227071   4.740419   3.608830   2.281804
     9  C    6.239701   6.616769   6.047292   4.823172   3.602411
    10  H    6.557505   6.968342   6.345621   5.035871   3.987217
    11  H    6.879562   7.076243   6.367586   5.148026   4.009749
    12  H    6.537259   7.074631   6.687296   5.561829   4.233922
    13  H    2.512232   2.876824   2.718154   2.070891   1.001090
    14  C    2.038965   2.645511   3.034438   3.110569   3.567406
    15  C    2.859394   3.003785   2.713550   2.341687   3.031596
    16  H    2.388761   3.399483   3.917595   3.825434   3.919765
    17  H    2.360960   2.733708   3.333735   3.777316   4.445168
    18  C    3.901415   4.243893   3.794096   2.908055   3.130702
    19  H    3.473511   3.199421   2.664646   2.515939   3.596697
    20  O    4.087268   4.749388   4.503498   3.566363   3.293089
    21  N    5.203141   5.307737   4.578976   3.589795   3.988115
    22  H    4.020975   3.432482   2.156282   1.111109   2.135131
    23  H    1.093095   2.183417   2.852408   2.903855   2.544833
    24  H    1.091204   2.134942   3.408263   4.054163   4.153545
    25  H    2.139203   1.097768   2.130475   3.425489   4.154019
    26  H    3.380805   2.126403   1.098256   2.118165   3.366131
    27  C    5.519729   5.240827   4.242081   3.371773   4.159616
    28  H    6.613264   6.305082   5.263026   4.397119   5.144582
    29  H    5.192490   4.798840   3.894223   3.373479   4.428780
    30  H    5.340839   4.921907   3.747086   2.747960   3.514243
    31  C    6.327992   6.540887   5.777305   4.604596   4.657179
    32  H    6.516246   6.941529   6.362675   5.234098   5.128367
    33  H    7.250078   7.349857   6.495290   5.364469   5.566901
    34  H    6.388786   6.570126   5.724425   4.420245   4.239630
                    6          7          8          9         10
     6  C    0.000000
     7  O    1.221112   0.000000
     8  O    1.364047   2.276180   0.000000
     9  C    2.375654   2.701040   1.412914   0.000000
    10  H    2.690912   2.729960   2.083053   1.095369   0.000000
    11  H    2.723356   2.737715   2.081518   1.094966   1.793312
    12  H    3.218368   3.744470   1.959511   1.092817   1.799803
    13  H    2.082157   3.205212   2.399201   3.804919   4.258296
    14  C    4.566755   5.232625   5.176885   6.373762   6.345171
    15  C    3.807204   4.210244   4.678450   5.770328   5.632234
    16  H    4.769191   5.544364   5.110615   6.232843   6.172712
    17  H    5.543910   6.166363   6.210037   7.438111   7.425270
    18  C    3.337109   3.584077   4.080692   4.905413   4.542926
    19  H    4.369005   4.547157   5.427660   6.489104   6.332920
    20  O    3.295787   3.754559   3.620394   4.335149   3.937014
    21  N    3.854151   3.622413   4.749457   5.297360   4.734224
    22  H    2.618884   2.540293   3.946587   4.941993   5.014095
    23  H    3.727043   4.788770   3.933262   5.292587   5.652704
    24  H    5.443301   6.421158   5.734997   7.092911   7.418426
    25  H    5.564312   6.266026   6.293874   7.688135   8.059889
    26  H    4.506019   4.786240   5.622990   6.862964   7.130046
    27  C    4.132356   3.649558   5.301057   5.906766   5.466765
    28  H    4.938092   4.253681   6.078252   6.497961   5.944777
    29  H    4.730233   4.425753   5.927924   6.706445   6.355328
    30  H    3.428451   2.833373   4.707073   5.341271   5.048442
    31  C    4.065470   3.630013   4.722193   4.865173   4.060122
    32  H    4.556926   4.331800   4.954622   5.025574   4.145694
    33  H    4.947937   4.318212   5.677562   5.712874   4.859026
    34  H    3.366612   2.798077   3.956527   3.929964   3.113794
                   11         12         13         14         15
    11  H    0.000000
    12  H    1.799539   0.000000
    13  H    4.375897   4.198646   0.000000
    14  C    7.117429   6.808152   3.283190   0.000000
    15  C    6.412264   6.394786   3.144010   1.389763   0.000000
    16  H    7.095337   6.519820   3.438518   1.093369   2.150567
    17  H    8.150314   7.874718   4.172362   1.092516   2.136448
    18  C    5.617481   5.558178   3.339188   2.486193   1.477629
    19  H    7.008625   7.215276   3.902046   2.143547   1.104313
    20  O    5.213794   4.807620   3.255388   2.902166   2.389892
    21  N    5.855252   6.103138   4.456867   3.729308   2.502398
    22  H    5.130840   5.830625   2.996336   3.802565   2.705860
    23  H    5.990348   5.508009   1.717070   2.384534   2.998777
    24  H    7.786270   7.276179   3.453932   2.523525   3.656469
    25  H    8.112018   8.133002   3.941523   3.338108   3.824308
    26  H    7.072742   7.581071   3.767082   3.782645   3.339275
    27  C    6.240255   6.840080   4.843651   4.249713   2.875905
    28  H    6.749129   7.470093   5.872218   5.278015   3.927290
    29  H    7.075541   7.595138   5.023708   3.845922   2.574564
    30  H    5.535233   6.330146   4.343936   4.462962   3.090585
    31  C    5.399131   5.664962   5.142991   4.969612   3.842509
    32  H    5.714820   5.657112   5.432609   5.070480   4.167678
    33  H    6.124152   6.557981   6.133743   5.805791   4.614458
    34  H    4.370937   4.799344   4.800368   5.339136   4.204677
                   16         17         18         19         20
    16  H    0.000000
    17  H    1.826179   0.000000
    18  C    2.692055   3.400928   0.000000
    19  H    3.085193   2.431856   2.200894   0.000000
    20  O    2.636632   3.929409   1.227692   3.325155   0.000000
    21  N    4.047713   4.472004   1.442828   2.656294   2.292798
    22  H    4.559089   4.429481   3.000136   2.568110   3.838763
    23  H    2.396676   3.066375   3.649610   3.831871   3.557788
    24  H    2.623564   2.523195   4.707737   4.254679   4.789043
    25  H    4.117394   3.069285   5.179196   3.820509   5.747208
    26  H    4.774172   3.863612   4.464066   2.917107   5.337867
    27  C    4.874924   4.803377   2.483528   2.477890   3.560359
    28  H    5.866189   5.780319   3.410992   3.465768   4.385969
    29  H    4.627724   4.172322   2.728785   1.813317   3.937918
    30  H    5.137131   5.083648   2.817532   2.755200   3.801301
    31  C    5.073178   5.808376   2.500914   4.120248   2.731301
    32  H    4.946405   5.930909   2.730161   4.629383   2.551109
    33  H    5.989306   6.545470   3.410429   4.678850   3.785411
    34  H    5.437930   6.267890   2.885492   4.553327   2.945072
                   21         22         23         24         25
    21  N    0.000000
    22  H    3.205503   0.000000
    23  H    5.011350   3.972748   0.000000
    24  H    6.050423   5.092152   1.802339   0.000000
    25  H    6.181504   4.264795   3.098623   2.432260   0.000000
    26  H    4.998964   2.415950   3.921129   4.227646   2.389911
    27  C    1.480983   2.624895   5.508663   6.444679   5.994501
    28  H    2.125601   3.539149   6.596161   7.526947   7.018307
    29  H    2.112862   2.768387   5.396773   6.041240   5.404277
    30  H    2.162710   1.794296   5.267196   6.355446   5.713000
    31  C    1.479978   4.151065   5.936172   7.180425   7.487180
    32  H    2.118850   4.963670   6.055390   7.261942   7.902178
    33  H    2.112871   4.743257   6.936370   8.108474   8.240401
    34  H    2.158882   3.946340   5.870156   7.309763   7.574536
                   26         27         28         29         30
    26  H    0.000000
    27  C    4.348128   0.000000
    28  H    5.257700   1.096626   0.000000
    29  H    3.853230   1.102331   1.786351   0.000000
    30  H    3.832054   1.106529   1.792134   1.781720   0.000000
    31  C    6.248815   2.481869   2.618653   3.394451   2.946237
    32  H    6.944898   3.408525   3.589696   4.175301   3.946547
    33  H    6.823575   2.640914   2.303909   3.558775   3.225527
    34  H    6.240016   2.888457   3.084318   3.912434   2.940901
                   31         32         33         34
    31  C    0.000000
    32  H    1.097878   0.000000
    33  H    1.098022   1.777900   0.000000
    34  H    1.100372   1.783277   1.784892   0.000000
 Symmetry turned off by external request.
 Stoichiometry    C11H18N2O3
 Framework group  C1[X(C11H18N2O3)]
 Deg. of freedom    96
 Full point group                 C1
 Rotational constants (GHZ):      0.6023326      0.4713059      0.3473500
 Standard basis: VSTO-3G (5D, 7F)
 Integral buffers will be    131072 words long.
 Raffenetti 1 integral format.
 Two-electron integral symmetry is turned off.
    82 basis functions,   246 primitive gaussians,    82 cartesian basis functions
    45 alpha electrons       45 beta electrons
       nuclear repulsion energy       647.1099539817 Hartrees.
 NAtoms=   34 NActive=   34 NUniq=   34 SFac= 7.50D-01 NAtFMM=   80 NAOKFM=F Big=F
 Simple Huckel Guess.
 RHF-PM3 calculation of energy, first and second derivatives.
 MO and density RWFs will be updated without deorthogonalization.
 Numerical evaluation of force-constants.
 Step-Size= 0.018897 bohr.
 Closed-shell calculation:      45 occupied levels.
 NNHCO=    0.
 References:
  H: (PM3): J. J. P. STEWART, J. COMP. CHEM.     10, 209 (1989).
  C: (PM3): J. J. P. STEWART, J. COMP. CHEM.     10, 209 (1989).
  N: (PM3): J. J. P. STEWART, J. COMP. CHEM.     10, 209 (1989).
  O: (PM3): J. J. P. STEWART, J. COMP. CHEM.     10, 209 (1989).
 Ext34=T Pulay=F Camp-King=F BShift= 0.00D+00
 It=  1 PL= 0.103D+01 DiagD=T ESCF=     21.030833 Diff= 0.167D+02 RMSDP= 0.164D+00.
 It=  2 PL= 0.934D-01 DiagD=T ESCF=     -0.067443 Diff=-0.211D+02 RMSDP= 0.586D-02.
 It=  3 PL= 0.309D-01 DiagD=F ESCF=     -1.679962 Diff=-0.161D+01 RMSDP= 0.357D-02.
 It=  4 PL= 0.552D-02 DiagD=F ESCF=     -2.081794 Diff=-0.402D+00 RMSDP= 0.698D-03.
 It=  5 PL= 0.271D-02 DiagD=F ESCF=     -1.973260 Diff= 0.109D+00 RMSDP= 0.422D-03.
 It=  6 PL= 0.161D-02 DiagD=F ESCF=     -1.978651 Diff=-0.539D-02 RMSDP= 0.696D-03.
 It=  7 PL= 0.381D-03 DiagD=F ESCF=     -1.987760 Diff=-0.911D-02 RMSDP= 0.932D-04.
 It=  8 PL= 0.269D-03 DiagD=F ESCF=     -1.982927 Diff= 0.483D-02 RMSDP= 0.661D-04.
 It=  9 PL= 0.182D-03 DiagD=F ESCF=     -1.983045 Diff=-0.119D-03 RMSDP= 0.129D-03.
 It= 10 PL= 0.465D-04 DiagD=F ESCF=     -1.983336 Diff=-0.291D-03 RMSDP= 0.184D-04.
 It= 11 PL= 0.402D-04 DiagD=F ESCF=     -1.983186 Diff= 0.151D-03 RMSDP= 0.131D-04.
 3-point extrapolation.
 It= 12 PL= 0.289D-04 DiagD=F ESCF=     -1.983190 Diff=-0.458D-05 RMSDP= 0.316D-04.
 It= 13 PL= 0.112D-03 DiagD=F ESCF=     -1.983193 Diff=-0.244D-05 RMSDP= 0.151D-04.
 It= 14 PL= 0.327D-04 DiagD=F ESCF=     -1.983188 Diff= 0.479D-05 RMSDP= 0.116D-04.
 It= 15 PL= 0.255D-04 DiagD=F ESCF=     -1.983192 Diff=-0.360D-05 RMSDP= 0.323D-04.
 It= 16 PL= 0.372D-05 DiagD=F ESCF=     -1.983208 Diff=-0.163D-04 RMSDP= 0.101D-05.
 It= 17 PL= 0.270D-05 DiagD=F ESCF=     -1.983196 Diff= 0.116D-04 RMSDP= 0.567D-06.
 It= 18 PL= 0.127D-05 DiagD=F ESCF=     -1.983196 Diff=-0.908D-08 RMSDP= 0.752D-06.
 It= 19 PL= 0.500D-06 DiagD=F ESCF=     -1.983196 Diff=-0.115D-07 RMSDP= 0.228D-06.
 It= 20 PL= 0.391D-06 DiagD=F ESCF=     -1.983196 Diff= 0.275D-08 RMSDP= 0.168D-06.
 3-point extrapolation.
 It= 21 PL= 0.301D-06 DiagD=F ESCF=     -1.983196 Diff=-0.771D-09 RMSDP= 0.478D-06.
 It= 22 PL= 0.129D-05 DiagD=F ESCF=     -1.983196 Diff=-0.280D-09 RMSDP= 0.188D-06.
 It= 23 PL= 0.327D-06 DiagD=F ESCF=     -1.983196 Diff= 0.604D-09 RMSDP= 0.144D-06.
 It= 24 PL= 0.259D-06 DiagD=F ESCF=     -1.983196 Diff=-0.640D-09 RMSDP= 0.377D-06.
 It= 25 PL= 0.752D-07 DiagD=F ESCF=     -1.983196 Diff=-0.215D-08 RMSDP= 0.244D-07.
 SE2nd ... symmetry will not be used.
 SE2nd: IAtom=  1 IXYZ=1 IS=1.
 SE2nd: IAtom=  1 IXYZ=1 IS=2.
 SE2nd: IAtom=  1 IXYZ=2 IS=1.
 SE2nd: IAtom=  1 IXYZ=2 IS=2.
 SE2nd: IAtom=  1 IXYZ=3 IS=1.
 SE2nd: IAtom=  1 IXYZ=3 IS=2.
 SE2nd: IAtom=  2 IXYZ=1 IS=1.
 SE2nd: IAtom=  2 IXYZ=1 IS=2.
 SE2nd: IAtom=  2 IXYZ=2 IS=1.
 SE2nd: IAtom=  2 IXYZ=2 IS=2.
 SE2nd: IAtom=  2 IXYZ=3 IS=1.
 SE2nd: IAtom=  2 IXYZ=3 IS=2.
 SE2nd: IAtom=  3 IXYZ=1 IS=1.
 SE2nd: IAtom=  3 IXYZ=1 IS=2.
 SE2nd: IAtom=  3 IXYZ=2 IS=1.
 SE2nd: IAtom=  3 IXYZ=2 IS=2.
 SE2nd: IAtom=  3 IXYZ=3 IS=1.
 SE2nd: IAtom=  3 IXYZ=3 IS=2.
 SE2nd: IAtom=  4 IXYZ=1 IS=1.
 SE2nd: IAtom=  4 IXYZ=1 IS=2.
 SE2nd: IAtom=  4 IXYZ=2 IS=1.
 SE2nd: IAtom=  4 IXYZ=2 IS=2.
 SE2nd: IAtom=  4 IXYZ=3 IS=1.
 SE2nd: IAtom=  4 IXYZ=3 IS=2.
 SE2nd: IAtom=  5 IXYZ=1 IS=1.
 SE2nd: IAtom=  5 IXYZ=1 IS=2.
 SE2nd: IAtom=  5 IXYZ=2 IS=1.
 SE2nd: IAtom=  5 IXYZ=2 IS=2.
 SE2nd: IAtom=  5 IXYZ=3 IS=1.
 SE2nd: IAtom=  5 IXYZ=3 IS=2.
 SE2nd: IAtom=  6 IXYZ=1 IS=1.
 SE2nd: IAtom=  6 IXYZ=1 IS=2.
 SE2nd: IAtom=  6 IXYZ=2 IS=1.
 SE2nd: IAtom=  6 IXYZ=2 IS=2.
 SE2nd: IAtom=  6 IXYZ=3 IS=1.
 SE2nd: IAtom=  6 IXYZ=3 IS=2.
 SE2nd: IAtom=  7 IXYZ=1 IS=1.
 SE2nd: IAtom=  7 IXYZ=1 IS=2.
 SE2nd: IAtom=  7 IXYZ=2 IS=1.
 SE2nd: IAtom=  7 IXYZ=2 IS=2.
 SE2nd: IAtom=  7 IXYZ=3 IS=1.
 SE2nd: IAtom=  7 IXYZ=3 IS=2.
 SE2nd: IAtom=  8 IXYZ=1 IS=1.
 SE2nd: IAtom=  8 IXYZ=1 IS=2.
 SE2nd: IAtom=  8 IXYZ=2 IS=1.
 SE2nd: IAtom=  8 IXYZ=2 IS=2.
 SE2nd: IAtom=  8 IXYZ=3 IS=1.
 SE2nd: IAtom=  8 IXYZ=3 IS=2.
 SE2nd: IAtom=  9 IXYZ=1 IS=1.
 SE2nd: IAtom=  9 IXYZ=1 IS=2.
 SE2nd: IAtom=  9 IXYZ=2 IS=1.
 SE2nd: IAtom=  9 IXYZ=2 IS=2.
 SE2nd: IAtom=  9 IXYZ=3 IS=1.
 SE2nd: IAtom=  9 IXYZ=3 IS=2.
 SE2nd: IAtom= 10 IXYZ=1 IS=1.
 SE2nd: IAtom= 10 IXYZ=1 IS=2.
 SE2nd: IAtom= 10 IXYZ=2 IS=1.
 SE2nd: IAtom= 10 IXYZ=2 IS=2.
 SE2nd: IAtom= 10 IXYZ=3 IS=1.
 SE2nd: IAtom= 10 IXYZ=3 IS=2.
 SE2nd: IAtom= 11 IXYZ=1 IS=1.
 SE2nd: IAtom= 11 IXYZ=1 IS=2.
 SE2nd: IAtom= 11 IXYZ=2 IS=1.
 SE2nd: IAtom= 11 IXYZ=2 IS=2.
 SE2nd: IAtom= 11 IXYZ=3 IS=1.
 SE2nd: IAtom= 11 IXYZ=3 IS=2.
 SE2nd: IAtom= 12 IXYZ=1 IS=1.
 SE2nd: IAtom= 12 IXYZ=1 IS=2.
 SE2nd: IAtom= 12 IXYZ=2 IS=1.
 SE2nd: IAtom= 12 IXYZ=2 IS=2.
 SE2nd: IAtom= 12 IXYZ=3 IS=1.
 SE2nd: IAtom= 12 IXYZ=3 IS=2.
 SE2nd: IAtom= 13 IXYZ=1 IS=1.
 SE2nd: IAtom= 13 IXYZ=1 IS=2.
 SE2nd: IAtom= 13 IXYZ=2 IS=1.
 SE2nd: IAtom= 13 IXYZ=2 IS=2.
 SE2nd: IAtom= 13 IXYZ=3 IS=1.
 SE2nd: IAtom= 13 IXYZ=3 IS=2.
 SE2nd: IAtom= 14 IXYZ=1 IS=1.
 SE2nd: IAtom= 14 IXYZ=1 IS=2.
 SE2nd: IAtom= 14 IXYZ=2 IS=1.
 SE2nd: IAtom= 14 IXYZ=2 IS=2.
 SE2nd: IAtom= 14 IXYZ=3 IS=1.
 SE2nd: IAtom= 14 IXYZ=3 IS=2.
 SE2nd: IAtom= 15 IXYZ=1 IS=1.
 SE2nd: IAtom= 15 IXYZ=1 IS=2.
 SE2nd: IAtom= 15 IXYZ=2 IS=1.
 SE2nd: IAtom= 15 IXYZ=2 IS=2.
 SE2nd: IAtom= 15 IXYZ=3 IS=1.
 SE2nd: IAtom= 15 IXYZ=3 IS=2.
 SE2nd: IAtom= 16 IXYZ=1 IS=1.
 SE2nd: IAtom= 16 IXYZ=1 IS=2.
 SE2nd: IAtom= 16 IXYZ=2 IS=1.
 SE2nd: IAtom= 16 IXYZ=2 IS=2.
 SE2nd: IAtom= 16 IXYZ=3 IS=1.
 SE2nd: IAtom= 16 IXYZ=3 IS=2.
 SE2nd: IAtom= 17 IXYZ=1 IS=1.
 SE2nd: IAtom= 17 IXYZ=1 IS=2.
 SE2nd: IAtom= 17 IXYZ=2 IS=1.
 SE2nd: IAtom= 17 IXYZ=2 IS=2.
 SE2nd: IAtom= 17 IXYZ=3 IS=1.
 SE2nd: IAtom= 17 IXYZ=3 IS=2.
 SE2nd: IAtom= 18 IXYZ=1 IS=1.
 SE2nd: IAtom= 18 IXYZ=1 IS=2.
 SE2nd: IAtom= 18 IXYZ=2 IS=1.
 SE2nd: IAtom= 18 IXYZ=2 IS=2.
 SE2nd: IAtom= 18 IXYZ=3 IS=1.
 SE2nd: IAtom= 18 IXYZ=3 IS=2.
 SE2nd: IAtom= 19 IXYZ=1 IS=1.
 SE2nd: IAtom= 19 IXYZ=1 IS=2.
 SE2nd: IAtom= 19 IXYZ=2 IS=1.
 SE2nd: IAtom= 19 IXYZ=2 IS=2.
 SE2nd: IAtom= 19 IXYZ=3 IS=1.
 SE2nd: IAtom= 19 IXYZ=3 IS=2.
 SE2nd: IAtom= 20 IXYZ=1 IS=1.
 SE2nd: IAtom= 20 IXYZ=1 IS=2.
 SE2nd: IAtom= 20 IXYZ=2 IS=1.
 SE2nd: IAtom= 20 IXYZ=2 IS=2.
 SE2nd: IAtom= 20 IXYZ=3 IS=1.
 SE2nd: IAtom= 20 IXYZ=3 IS=2.
 SE2nd: IAtom= 21 IXYZ=1 IS=1.
 SE2nd: IAtom= 21 IXYZ=1 IS=2.
 SE2nd: IAtom= 21 IXYZ=2 IS=1.
 SE2nd: IAtom= 21 IXYZ=2 IS=2.
 SE2nd: IAtom= 21 IXYZ=3 IS=1.
 SE2nd: IAtom= 21 IXYZ=3 IS=2.
 SE2nd: IAtom= 22 IXYZ=1 IS=1.
 SE2nd: IAtom= 22 IXYZ=1 IS=2.
 SE2nd: IAtom= 22 IXYZ=2 IS=1.
 SE2nd: IAtom= 22 IXYZ=2 IS=2.
 SE2nd: IAtom= 22 IXYZ=3 IS=1.
 SE2nd: IAtom= 22 IXYZ=3 IS=2.
 SE2nd: IAtom= 23 IXYZ=1 IS=1.
 SE2nd: IAtom= 23 IXYZ=1 IS=2.
 SE2nd: IAtom= 23 IXYZ=2 IS=1.
 SE2nd: IAtom= 23 IXYZ=2 IS=2.
 SE2nd: IAtom= 23 IXYZ=3 IS=1.
 SE2nd: IAtom= 23 IXYZ=3 IS=2.
 SE2nd: IAtom= 24 IXYZ=1 IS=1.
 SE2nd: IAtom= 24 IXYZ=1 IS=2.
 SE2nd: IAtom= 24 IXYZ=2 IS=1.
 SE2nd: IAtom= 24 IXYZ=2 IS=2.
 SE2nd: IAtom= 24 IXYZ=3 IS=1.
 SE2nd: IAtom= 24 IXYZ=3 IS=2.
 SE2nd: IAtom= 25 IXYZ=1 IS=1.
 SE2nd: IAtom= 25 IXYZ=1 IS=2.
 SE2nd: IAtom= 25 IXYZ=2 IS=1.
 SE2nd: IAtom= 25 IXYZ=2 IS=2.
 SE2nd: IAtom= 25 IXYZ=3 IS=1.
 SE2nd: IAtom= 25 IXYZ=3 IS=2.
 SE2nd: IAtom= 26 IXYZ=1 IS=1.
 SE2nd: IAtom= 26 IXYZ=1 IS=2.
 SE2nd: IAtom= 26 IXYZ=2 IS=1.
 SE2nd: IAtom= 26 IXYZ=2 IS=2.
 SE2nd: IAtom= 26 IXYZ=3 IS=1.
 SE2nd: IAtom= 26 IXYZ=3 IS=2.
 SE2nd: IAtom= 27 IXYZ=1 IS=1.
 SE2nd: IAtom= 27 IXYZ=1 IS=2.
 SE2nd: IAtom= 27 IXYZ=2 IS=1.
 SE2nd: IAtom= 27 IXYZ=2 IS=2.
 SE2nd: IAtom= 27 IXYZ=3 IS=1.
 SE2nd: IAtom= 27 IXYZ=3 IS=2.
 SE2nd: IAtom= 28 IXYZ=1 IS=1.
 SE2nd: IAtom= 28 IXYZ=1 IS=2.
 SE2nd: IAtom= 28 IXYZ=2 IS=1.
 SE2nd: IAtom= 28 IXYZ=2 IS=2.
 SE2nd: IAtom= 28 IXYZ=3 IS=1.
 SE2nd: IAtom= 28 IXYZ=3 IS=2.
 SE2nd: IAtom= 29 IXYZ=1 IS=1.
 SE2nd: IAtom= 29 IXYZ=1 IS=2.
 SE2nd: IAtom= 29 IXYZ=2 IS=1.
 SE2nd: IAtom= 29 IXYZ=2 IS=2.
 SE2nd: IAtom= 29 IXYZ=3 IS=1.
 SE2nd: IAtom= 29 IXYZ=3 IS=2.
 SE2nd: IAtom= 30 IXYZ=1 IS=1.
 SE2nd: IAtom= 30 IXYZ=1 IS=2.
 SE2nd: IAtom= 30 IXYZ=2 IS=1.
 SE2nd: IAtom= 30 IXYZ=2 IS=2.
 SE2nd: IAtom= 30 IXYZ=3 IS=1.
 SE2nd: IAtom= 30 IXYZ=3 IS=2.
 SE2nd: IAtom= 31 IXYZ=1 IS=1.
 SE2nd: IAtom= 31 IXYZ=1 IS=2.
 SE2nd: IAtom= 31 IXYZ=2 IS=1.
 SE2nd: IAtom= 31 IXYZ=2 IS=2.
 SE2nd: IAtom= 31 IXYZ=3 IS=1.
 SE2nd: IAtom= 31 IXYZ=3 IS=2.
 SE2nd: IAtom= 32 IXYZ=1 IS=1.
 SE2nd: IAtom= 32 IXYZ=1 IS=2.
 SE2nd: IAtom= 32 IXYZ=2 IS=1.
 SE2nd: IAtom= 32 IXYZ=2 IS=2.
 SE2nd: IAtom= 32 IXYZ=3 IS=1.
 SE2nd: IAtom= 32 IXYZ=3 IS=2.
 SE2nd: IAtom= 33 IXYZ=1 IS=1.
 SE2nd: IAtom= 33 IXYZ=1 IS=2.
 SE2nd: IAtom= 33 IXYZ=2 IS=1.
 SE2nd: IAtom= 33 IXYZ=2 IS=2.
 SE2nd: IAtom= 33 IXYZ=3 IS=1.
 SE2nd: IAtom= 33 IXYZ=3 IS=2.
 SE2nd: IAtom= 34 IXYZ=1 IS=1.
 SE2nd: IAtom= 34 IXYZ=1 IS=2.
 SE2nd: IAtom= 34 IXYZ=2 IS=1.
 SE2nd: IAtom= 34 IXYZ=2 IS=2.
 SE2nd: IAtom= 34 IXYZ=3 IS=1.
 SE2nd: IAtom= 34 IXYZ=3 IS=2.
 Maximum difference in off-diagonal FC elements:
 I= 60 J= 53 Difference=    1.7861585392D-04
 Max difference between analytic and numerical forces:
 I= 60 Difference=    1.5062712398D-04
 Energy=   -0.072882546746 NIter=  26.
 Dipole moment=      -0.540479       0.391964      -0.396078

 **********************************************************************

            Population analysis using the SCF density.

 **********************************************************************

 Alpha  occ. eigenvalues --   -1.49502  -1.44502  -1.36197  -1.32354  -1.25343
 Alpha  occ. eigenvalues --   -1.18042  -1.13265  -1.06052  -1.00699  -0.98237
 Alpha  occ. eigenvalues --   -0.90000  -0.84180  -0.77461  -0.76519  -0.73190
 Alpha  occ. eigenvalues --   -0.68760  -0.67184  -0.65645  -0.64227  -0.62685
 Alpha  occ. eigenvalues --   -0.62279  -0.60219  -0.58630  -0.58063  -0.56160
 Alpha  occ. eigenvalues --   -0.55583  -0.54331  -0.53277  -0.52247  -0.50830
 Alpha  occ. eigenvalues --   -0.50190  -0.50056  -0.49226  -0.49051  -0.47870
 Alpha  occ. eigenvalues --   -0.47303  -0.45855  -0.44747  -0.42974  -0.42566
 Alpha  occ. eigenvalues --   -0.41322  -0.39192  -0.35284  -0.33994  -0.31318
 Alpha virt. eigenvalues --   -0.03090   0.00253   0.03131   0.04341   0.05469
 Alpha virt. eigenvalues --    0.07097   0.07886   0.09855   0.11040   0.11733
 Alpha virt. eigenvalues --    0.12150   0.12398   0.12868   0.13498   0.13678
 Alpha virt. eigenvalues --    0.13974   0.14125   0.14522   0.14698   0.14919
 Alpha virt. eigenvalues --    0.15169   0.15268   0.15430   0.16223   0.16281
 Alpha virt. eigenvalues --    0.16800   0.17170   0.17613   0.18404   0.18770
 Alpha virt. eigenvalues --    0.19418   0.19578   0.20302   0.21083   0.22101
 Alpha virt. eigenvalues --    0.26194   0.27209
          Condensed to atoms (all electrons):
              1          2          3          4          5          6
     1  C    4.162668   0.000000   0.000000   0.000000   0.000000   0.000000
     2  C    0.000000   4.069076   0.000000   0.000000   0.000000   0.000000
     3  C    0.000000   0.000000   4.196737   0.000000   0.000000   0.000000
     4  C    0.000000   0.000000   0.000000   4.052379   0.000000   0.000000
     5  N    0.000000   0.000000   0.000000   0.000000   4.914904   0.000000
     6  C    0.000000   0.000000   0.000000   0.000000   0.000000   3.653351
     7  O    0.000000   0.000000   0.000000   0.000000   0.000000   0.000000
     8  O    0.000000   0.000000   0.000000   0.000000   0.000000   0.000000
     9  C    0.000000   0.000000   0.000000   0.000000   0.000000   0.000000
    10  H    0.000000   0.000000   0.000000   0.000000   0.000000   0.000000
    11  H    0.000000   0.000000   0.000000   0.000000   0.000000   0.000000
    12  H    0.000000   0.000000   0.000000   0.000000   0.000000   0.000000
    13  H    0.000000   0.000000   0.000000   0.000000   0.000000   0.000000
    14  C    0.000000   0.000000   0.000000   0.000000   0.000000   0.000000
    15  C    0.000000   0.000000   0.000000   0.000000   0.000000   0.000000
    16  H    0.000000   0.000000   0.000000   0.000000   0.000000   0.000000
    17  H    0.000000   0.000000   0.000000   0.000000   0.000000   0.000000
    18  C    0.000000   0.000000   0.000000   0.000000   0.000000   0.000000
    19  H    0.000000   0.000000   0.000000   0.000000   0.000000   0.000000
    20  O    0.000000   0.000000   0.000000   0.000000   0.000000   0.000000
    21  N    0.000000   0.000000   0.000000   0.000000   0.000000   0.000000
    22  H    0.000000   0.000000   0.000000   0.000000   0.000000   0.000000
    23  H    0.000000   0.000000   0.000000   0.000000   0.000000   0.000000
    24  H    0.000000   0.000000   0.000000   0.000000   0.000000   0.000000
    25  H    0.000000   0.000000   0.000000   0.000000   0.000000   0.000000
    26  H    0.000000   0.000000   0.000000   0.000000   0.000000   0.000000
    27  C    0.000000   0.000000   0.000000   0.000000   0.000000   0.000000
    28  H    0.000000   0.000000   0.000000   0.000000   0.000000   0.000000
    29  H    0.000000   0.000000   0.000000   0.000000   0.000000   0.000000
    30  H    0.000000   0.000000   0.000000   0.000000   0.000000   0.000000
    31  C    0.000000   0.000000   0.000000   0.000000   0.000000   0.000000
    32  H    0.000000   0.000000   0.000000   0.000000   0.000000   0.000000
    33  H    0.000000   0.000000   0.000000   0.000000   0.000000   0.000000
    34  H    0.000000   0.000000   0.000000   0.000000   0.000000   0.000000
              7          8          9         10         11         12
     1  C    0.000000   0.000000   0.000000   0.000000   0.000000   0.000000
     2  C    0.000000   0.000000   0.000000   0.000000   0.000000   0.000000
     3  C    0.000000   0.000000   0.000000   0.000000   0.000000   0.000000
     4  C    0.000000   0.000000   0.000000   0.000000   0.000000   0.000000
     5  N    0.000000   0.000000   0.000000   0.000000   0.000000   0.000000
     6  C    0.000000   0.000000   0.000000   0.000000   0.000000   0.000000
     7  O    6.411143   0.000000   0.000000   0.000000   0.000000   0.000000
     8  O    0.000000   6.252988   0.000000   0.000000   0.000000   0.000000
     9  C    0.000000   0.000000   3.914897   0.000000   0.000000   0.000000
    10  H    0.000000   0.000000   0.000000   0.958249   0.000000   0.000000
    11  H    0.000000   0.000000   0.000000   0.000000   0.963740   0.000000
    12  H    0.000000   0.000000   0.000000   0.000000   0.000000   0.951862
    13  H    0.000000   0.000000   0.000000   0.000000   0.000000   0.000000
    14  C    0.000000   0.000000   0.000000   0.000000   0.000000   0.000000
    15  C    0.000000   0.000000   0.000000   0.000000   0.000000   0.000000
    16  H    0.000000   0.000000   0.000000   0.000000   0.000000   0.000000
    17  H    0.000000   0.000000   0.000000   0.000000   0.000000   0.000000
    18  C    0.000000   0.000000   0.000000   0.000000   0.000000   0.000000
    19  H    0.000000   0.000000   0.000000   0.000000   0.000000   0.000000
    20  O    0.000000   0.000000   0.000000   0.000000   0.000000   0.000000
    21  N    0.000000   0.000000   0.000000   0.000000   0.000000   0.000000
    22  H    0.000000   0.000000   0.000000   0.000000   0.000000   0.000000
    23  H    0.000000   0.000000   0.000000   0.000000   0.000000   0.000000
    24  H    0.000000   0.000000   0.000000   0.000000   0.000000   0.000000
    25  H    0.000000   0.000000   0.000000   0.000000   0.000000   0.000000
    26  H    0.000000   0.000000   0.000000   0.000000   0.000000   0.000000
    27  C    0.000000   0.000000   0.000000   0.000000   0.000000   0.000000
    28  H    0.000000   0.000000   0.000000   0.000000   0.000000   0.000000
    29  H    0.000000   0.000000   0.000000   0.000000   0.000000   0.000000
    30  H    0.000000   0.000000   0.000000   0.000000   0.000000   0.000000
    31  C    0.000000   0.000000   0.000000   0.000000   0.000000   0.000000
    32  H    0.000000   0.000000   0.000000   0.000000   0.000000   0.000000
    33  H    0.000000   0.000000   0.000000   0.000000   0.000000   0.000000
    34  H    0.000000   0.000000   0.000000   0.000000   0.000000   0.000000
             13         14         15         16         17         18
     1  C    0.000000   0.000000   0.000000   0.000000   0.000000   0.000000
     2  C    0.000000   0.000000   0.000000   0.000000   0.000000   0.000000
     3  C    0.000000   0.000000   0.000000   0.000000   0.000000   0.000000
     4  C    0.000000   0.000000   0.000000   0.000000   0.000000   0.000000
     5  N    0.000000   0.000000   0.000000   0.000000   0.000000   0.000000
     6  C    0.000000   0.000000   0.000000   0.000000   0.000000   0.000000
     7  O    0.000000   0.000000   0.000000   0.000000   0.000000   0.000000
     8  O    0.000000   0.000000   0.000000   0.000000   0.000000   0.000000
     9  C    0.000000   0.000000   0.000000   0.000000   0.000000   0.000000
    10  H    0.000000   0.000000   0.000000   0.000000   0.000000   0.000000
    11  H    0.000000   0.000000   0.000000   0.000000   0.000000   0.000000
    12  H    0.000000   0.000000   0.000000   0.000000   0.000000   0.000000
    13  H    0.896135   0.000000   0.000000   0.000000   0.000000   0.000000
    14  C    0.000000   4.030953   0.000000   0.000000   0.000000   0.000000
    15  C    0.000000   0.000000   4.309253   0.000000   0.000000   0.000000
    16  H    0.000000   0.000000   0.000000   0.910794   0.000000   0.000000
    17  H    0.000000   0.000000   0.000000   0.000000   0.930883   0.000000
    18  C    0.000000   0.000000   0.000000   0.000000   0.000000   3.713732
    19  H    0.000000   0.000000   0.000000   0.000000   0.000000   0.000000
    20  O    0.000000   0.000000   0.000000   0.000000   0.000000   0.000000
    21  N    0.000000   0.000000   0.000000   0.000000   0.000000   0.000000
    22  H    0.000000   0.000000   0.000000   0.000000   0.000000   0.000000
    23  H    0.000000   0.000000   0.000000   0.000000   0.000000   0.000000
    24  H    0.000000   0.000000   0.000000   0.000000   0.000000   0.000000
    25  H    0.000000   0.000000   0.000000   0.000000   0.000000   0.000000
    26  H    0.000000   0.000000   0.000000   0.000000   0.000000   0.000000
    27  C    0.000000   0.000000   0.000000   0.000000   0.000000   0.000000
    28  H    0.000000   0.000000   0.000000   0.000000   0.000000   0.000000
    29  H    0.000000   0.000000   0.000000   0.000000   0.000000   0.000000
    30  H    0.000000   0.000000   0.000000   0.000000   0.000000   0.000000
    31  C    0.000000   0.000000   0.000000   0.000000   0.000000   0.000000
    32  H    0.000000   0.000000   0.000000   0.000000   0.000000   0.000000
    33  H    0.000000   0.000000   0.000000   0.000000   0.000000   0.000000
    34  H    0.000000   0.000000   0.000000   0.000000   0.000000   0.000000
             19         20         21         22         23         24
     1  C    0.000000   0.000000   0.000000   0.000000   0.000000   0.000000
     2  C    0.000000   0.000000   0.000000   0.000000   0.000000   0.000000
     3  C    0.000000   0.000000   0.000000   0.000000   0.000000   0.000000
     4  C    0.000000   0.000000   0.000000   0.000000   0.000000   0.000000
     5  N    0.000000   0.000000   0.000000   0.000000   0.000000   0.000000
     6  C    0.000000   0.000000   0.000000   0.000000   0.000000   0.000000
     7  O    0.000000   0.000000   0.000000   0.000000   0.000000   0.000000
     8  O    0.000000   0.000000   0.000000   0.000000   0.000000   0.000000
     9  C    0.000000   0.000000   0.000000   0.000000   0.000000   0.000000
    10  H    0.000000   0.000000   0.000000   0.000000   0.000000   0.000000
    11  H    0.000000   0.000000   0.000000   0.000000   0.000000   0.000000
    12  H    0.000000   0.000000   0.000000   0.000000   0.000000   0.000000
    13  H    0.000000   0.000000   0.000000   0.000000   0.000000   0.000000
    14  C    0.000000   0.000000   0.000000   0.000000   0.000000   0.000000
    15  C    0.000000   0.000000   0.000000   0.000000   0.000000   0.000000
    16  H    0.000000   0.000000   0.000000   0.000000   0.000000   0.000000
    17  H    0.000000   0.000000   0.000000   0.000000   0.000000   0.000000
    18  C    0.000000   0.000000   0.000000   0.000000   0.000000   0.000000
    19  H    0.879013   0.000000   0.000000   0.000000   0.000000   0.000000
    20  O    0.000000   6.398540   0.000000   0.000000   0.000000   0.000000
    21  N    0.000000   0.000000   5.055583   0.000000   0.000000   0.000000
    22  H    0.000000   0.000000   0.000000   0.870648   0.000000   0.000000
    23  H    0.000000   0.000000   0.000000   0.000000   0.910197   0.000000
    24  H    0.000000   0.000000   0.000000   0.000000   0.000000   0.923374
    25  H    0.000000   0.000000   0.000000   0.000000   0.000000   0.000000
    26  H    0.000000   0.000000   0.000000   0.000000   0.000000   0.000000
    27  C    0.000000   0.000000   0.000000   0.000000   0.000000   0.000000
    28  H    0.000000   0.000000   0.000000   0.000000   0.000000   0.000000
    29  H    0.000000   0.000000   0.000000   0.000000   0.000000   0.000000
    30  H    0.000000   0.000000   0.000000   0.000000   0.000000   0.000000
    31  C    0.000000   0.000000   0.000000   0.000000   0.000000   0.000000
    32  H    0.000000   0.000000   0.000000   0.000000   0.000000   0.000000
    33  H    0.000000   0.000000   0.000000   0.000000   0.000000   0.000000
    34  H    0.000000   0.000000   0.000000   0.000000   0.000000   0.000000
             25         26         27         28         29         30
     1  C    0.000000   0.000000   0.000000   0.000000   0.000000   0.000000
     2  C    0.000000   0.000000   0.000000   0.000000   0.000000   0.000000
     3  C    0.000000   0.000000   0.000000   0.000000   0.000000   0.000000
     4  C    0.000000   0.000000   0.000000   0.000000   0.000000   0.000000
     5  N    0.000000   0.000000   0.000000   0.000000   0.000000   0.000000
     6  C    0.000000   0.000000   0.000000   0.000000   0.000000   0.000000
     7  O    0.000000   0.000000   0.000000   0.000000   0.000000   0.000000
     8  O    0.000000   0.000000   0.000000   0.000000   0.000000   0.000000
     9  C    0.000000   0.000000   0.000000   0.000000   0.000000   0.000000
    10  H    0.000000   0.000000   0.000000   0.000000   0.000000   0.000000
    11  H    0.000000   0.000000   0.000000   0.000000   0.000000   0.000000
    12  H    0.000000   0.000000   0.000000   0.000000   0.000000   0.000000
    13  H    0.000000   0.000000   0.000000   0.000000   0.000000   0.000000
    14  C    0.000000   0.000000   0.000000   0.000000   0.000000   0.000000
    15  C    0.000000   0.000000   0.000000   0.000000   0.000000   0.000000
    16  H    0.000000   0.000000   0.000000   0.000000   0.000000   0.000000
    17  H    0.000000   0.000000   0.000000   0.000000   0.000000   0.000000
    18  C    0.000000   0.000000   0.000000   0.000000   0.000000   0.000000
    19  H    0.000000   0.000000   0.000000   0.000000   0.000000   0.000000
    20  O    0.000000   0.000000   0.000000   0.000000   0.000000   0.000000
    21  N    0.000000   0.000000   0.000000   0.000000   0.000000   0.000000
    22  H    0.000000   0.000000   0.000000   0.000000   0.000000   0.000000
    23  H    0.000000   0.000000   0.000000   0.000000   0.000000   0.000000
    24  H    0.000000   0.000000   0.000000   0.000000   0.000000   0.000000
    25  H    0.902380   0.000000   0.000000   0.000000   0.000000   0.000000
    26  H    0.000000   0.890001   0.000000   0.000000   0.000000   0.000000
    27  C    0.000000   0.000000   4.097374   0.000000   0.000000   0.000000
    28  H    0.000000   0.000000   0.000000   0.943700   0.000000   0.000000
    29  H    0.000000   0.000000   0.000000   0.000000   0.950822   0.000000
    30  H    0.000000   0.000000   0.000000   0.000000   0.000000   0.955552
    31  C    0.000000   0.000000   0.000000   0.000000   0.000000   0.000000
    32  H    0.000000   0.000000   0.000000   0.000000   0.000000   0.000000
    33  H    0.000000   0.000000   0.000000   0.000000   0.000000   0.000000
    34  H    0.000000   0.000000   0.000000   0.000000   0.000000   0.000000
             31         32         33         34
     1  C    0.000000   0.000000   0.000000   0.000000
     2  C    0.000000   0.000000   0.000000   0.000000
     3  C    0.000000   0.000000   0.000000   0.000000
     4  C    0.000000   0.000000   0.000000   0.000000
     5  N    0.000000   0.000000   0.000000   0.000000
     6  C    0.000000   0.000000   0.000000   0.000000
     7  O    0.000000   0.000000   0.000000   0.000000
     8  O    0.000000   0.000000   0.000000   0.000000
     9  C    0.000000   0.000000   0.000000   0.000000
    10  H    0.000000   0.000000   0.000000   0.000000
    11  H    0.000000   0.000000   0.000000   0.000000
    12  H    0.000000   0.000000   0.000000   0.000000
    13  H    0.000000   0.000000   0.000000   0.000000
    14  C    0.000000   0.000000   0.000000   0.000000
    15  C    0.000000   0.000000   0.000000   0.000000
    16  H    0.000000   0.000000   0.000000   0.000000
    17  H    0.000000   0.000000   0.000000   0.000000
    18  C    0.000000   0.000000   0.000000   0.000000
    19  H    0.000000   0.000000   0.000000   0.000000
    20  O    0.000000   0.000000   0.000000   0.000000
    21  N    0.000000   0.000000   0.000000   0.000000
    22  H    0.000000   0.000000   0.000000   0.000000
    23  H    0.000000   0.000000   0.000000   0.000000
    24  H    0.000000   0.000000   0.000000   0.000000
    25  H    0.000000   0.000000   0.000000   0.000000
    26  H    0.000000   0.000000   0.000000   0.000000
    27  C    0.000000   0.000000   0.000000   0.000000
    28  H    0.000000   0.000000   0.000000   0.000000
    29  H    0.000000   0.000000   0.000000   0.000000
    30  H    0.000000   0.000000   0.000000   0.000000
    31  C    4.080006   0.000000   0.000000   0.000000
    32  H    0.000000   0.936946   0.000000   0.000000
    33  H    0.000000   0.000000   0.956148   0.000000
    34  H    0.000000   0.000000   0.000000   0.955971
 Mulliken atomic charges:
              1
     1  C   -0.162668
     2  C   -0.069076
     3  C   -0.196737
     4  C   -0.052379
     5  N    0.085096
     6  C    0.346649
     7  O   -0.411143
     8  O   -0.252988
     9  C    0.085103
    10  H    0.041751
    11  H    0.036260
    12  H    0.048138
    13  H    0.103865
    14  C   -0.030953
    15  C   -0.309253
    16  H    0.089206
    17  H    0.069117
    18  C    0.286268
    19  H    0.120987
    20  O   -0.398540
    21  N   -0.055583
    22  H    0.129352
    23  H    0.089803
    24  H    0.076626
    25  H    0.097620
    26  H    0.109999
    27  C   -0.097374
    28  H    0.056300
    29  H    0.049178
    30  H    0.044448
    31  C   -0.080006
    32  H    0.063054
    33  H    0.043852
    34  H    0.044029
 Sum of Mulliken charges=   0.00000
 Atomic charges with hydrogens summed into heavy atoms:
              1
     1  C    0.003761
     2  C    0.028544
     3  C   -0.086739
     4  C    0.076973
     5  N    0.188960
     6  C    0.346649
     7  O   -0.411143
     8  O   -0.252988
     9  C    0.211252
    10  H    0.000000
    11  H    0.000000
    12  H    0.000000
    13  H    0.000000
    14  C    0.127370
    15  C   -0.188266
    16  H    0.000000
    17  H    0.000000
    18  C    0.286268
    19  H    0.000000
    20  O   -0.398540
    21  N   -0.055583
    22  H    0.000000
    23  H    0.000000
    24  H    0.000000
    25  H    0.000000
    26  H    0.000000
    27  C    0.052552
    28  H    0.000000
    29  H    0.000000
    30  H    0.000000
    31  C    0.070929
    32  H    0.000000
    33  H    0.000000
    34  H    0.000000
 Sum of Mulliken charges=   0.00000
 APT atomic charges:
              1
     1  C   -0.356000
     2  C    0.124182
     3  C   -0.483071
     4  C    0.559759
     5  N   -0.888292
     6  C    1.584037
     7  O   -0.822289
     8  O   -0.668032
     9  C    0.317582
    10  H   -0.000190
    11  H   -0.004884
    12  H    0.001131
    13  H    0.150168
    14  C    0.232854
    15  C   -0.462874
    16  H    0.049323
    17  H    0.006125
    18  C    1.181515
    19  H    0.072363
    20  O   -0.725151
    21  N   -0.622188
    22  H    0.094663
    23  H    0.067591
    24  H    0.077221
    25  H    0.098588
    26  H    0.110266
    27  C    0.083200
    28  H    0.034183
    29  H    0.021974
    30  H   -0.000436
    31  C    0.117238
    32  H    0.038711
    33  H    0.014159
    34  H   -0.002627
 Sum of APT charges=   0.00080
 APT Atomic charges with hydrogens summed into heavy atoms:
              1
     1  C   -0.211188
     2  C    0.222770
     3  C   -0.372804
     4  C    0.654421
     5  N   -0.738125
     6  C    1.584037
     7  O   -0.822289
     8  O   -0.668032
     9  C    0.313639
    10  H    0.000000
    11  H    0.000000
    12  H    0.000000
    13  H    0.000000
    14  C    0.288302
    15  C   -0.390512
    16  H    0.000000
    17  H    0.000000
    18  C    1.181515
    19  H    0.000000
    20  O   -0.725151
    21  N   -0.622188
    22  H    0.000000
    23  H    0.000000
    24  H    0.000000
    25  H    0.000000
    26  H    0.000000
    27  C    0.138921
    28  H    0.000000
    29  H    0.000000
    30  H    0.000000
    31  C    0.167480
    32  H    0.000000
    33  H    0.000000
    34  H    0.000000
 Sum of APT charges=   0.00080
 Full mass-weighted force constant matrix:
 Low frequencies --- -912.1107   -4.4048   -3.1295   -2.0608    0.0351    0.1085
 Low frequencies ---    0.2518   31.0063   45.3982
 ******    1 imaginary frequencies (negative Signs) ****** 
 Diagonal vibrational polarizability:
      129.0907796      46.0051092      17.0137431
 Harmonic frequencies (cm**-1), IR intensities (KM/Mole), Raman scattering
 activities (A**4/AMU), depolarization ratios for plane and unpolarized
 incident light, reduced masses (AMU), force constants (mDyne/A),
 and normal coordinates:
                     1                      2                      3
                     A                      A                      A
 Frequencies --  -912.1107                31.0055                45.3980
 Red. masses --     6.6096                 4.1541                 3.7999
 Frc consts  --     3.2398                 0.0024                 0.0046
 IR Inten    --    82.2871                 1.1955                 1.0934
 Atom AN      X      Y      Z        X      Y      Z        X      Y      Z
   1   6     0.40  -0.02   0.00     0.02   0.02   0.01    -0.07  -0.02  -0.02
   2   6     0.01  -0.05  -0.11    -0.01   0.04   0.02     0.03   0.02  -0.06
   3   6    -0.07   0.10   0.01    -0.03   0.04   0.00     0.05   0.03  -0.06
   4   6     0.26   0.09   0.12    -0.03   0.03  -0.03     0.00   0.01  -0.05
   5   7     0.00   0.00  -0.02    -0.01   0.01  -0.03    -0.08   0.00  -0.08
   6   6     0.00   0.00   0.00     0.01   0.01  -0.07    -0.01   0.03   0.00
   7   8     0.00   0.00   0.00    -0.09   0.01  -0.13     0.05   0.02   0.04
   8   8     0.00   0.00   0.00     0.16   0.01  -0.04    -0.01   0.08   0.01
   9   6     0.00   0.00   0.00     0.29   0.04  -0.06     0.16   0.17   0.13
  10   1     0.00   0.00   0.00     0.29   0.10  -0.22     0.19   0.32   0.16
  11   1     0.00   0.00   0.00     0.25   0.00   0.03     0.28   0.05   0.18
  12   1     0.00   0.00   0.00     0.45   0.05  -0.02     0.15   0.21   0.12
  13   1    -0.05  -0.01  -0.01     0.04   0.01  -0.01    -0.17   0.00  -0.10
  14   6    -0.37   0.03   0.08     0.01   0.03  -0.05    -0.04  -0.10   0.15
  15   6    -0.23  -0.17  -0.07    -0.01  -0.01  -0.01    -0.01  -0.04   0.09
  16   1     0.18   0.01  -0.04     0.03   0.07  -0.05    -0.12  -0.20   0.17
  17   1     0.33   0.00   0.00     0.01   0.01  -0.09     0.03  -0.06   0.24
  18   6     0.00   0.02  -0.01    -0.04   0.00   0.04    -0.03  -0.09   0.02
  19   1     0.22   0.12   0.04     0.01  -0.05  -0.02     0.03   0.05   0.11
  20   8     0.00   0.00   0.00    -0.06   0.05   0.05    -0.07  -0.18  -0.01
  21   7     0.00   0.00   0.00    -0.07  -0.08   0.08    -0.01  -0.01  -0.02
  22   1     0.06   0.05   0.02    -0.05   0.04  -0.05     0.04   0.01  -0.03
  23   1    -0.37   0.01   0.06     0.04   0.01   0.00    -0.16  -0.03  -0.04
  24   1     0.09  -0.02  -0.04     0.04   0.01   0.02    -0.08  -0.02  -0.02
  25   1    -0.11  -0.02   0.05    -0.01   0.04   0.04     0.10   0.04  -0.07
  26   1    -0.30  -0.13  -0.01    -0.05   0.06   0.00     0.12   0.05  -0.06
  27   6     0.00   0.00   0.00    -0.03  -0.09   0.07     0.03   0.10  -0.04
  28   1     0.00   0.00   0.00    -0.04  -0.14   0.11     0.05   0.15  -0.06
  29   1     0.01   0.00   0.00     0.03  -0.10   0.05     0.03   0.12   0.04
  30   1     0.01   0.00   0.00    -0.05  -0.05   0.06     0.04   0.09  -0.10
  31   6     0.00   0.00   0.00    -0.15  -0.09   0.14    -0.01  -0.05  -0.11
  32   1     0.00   0.00   0.00    -0.10  -0.07   0.11    -0.03  -0.12  -0.08
  33   1     0.00   0.00   0.00    -0.21  -0.21   0.14     0.00   0.01  -0.12
  34   1     0.00   0.00   0.00    -0.21  -0.02   0.23    -0.01  -0.06  -0.17
                     4                      5                      6
                     A                      A                      A
 Frequencies --    70.3367                77.5347                98.2659
 Red. masses --     3.9688                 3.6529                 3.8407
 Frc consts  --     0.0116                 0.0129                 0.0219
 IR Inten    --     1.2548                 3.7782                 3.5702
 Atom AN      X      Y      Z        X      Y      Z        X      Y      Z
   1   6     0.06  -0.03   0.08    -0.01  -0.02   0.00    -0.10  -0.02  -0.02
   2   6    -0.02   0.03   0.10    -0.02  -0.03   0.00    -0.01   0.01  -0.05
   3   6    -0.07   0.06   0.04     0.01  -0.02   0.00     0.02   0.01  -0.05
   4   6    -0.07   0.03  -0.03     0.04  -0.01   0.00     0.01   0.01  -0.03
   5   7    -0.08  -0.01  -0.06     0.05  -0.01   0.00    -0.03   0.00  -0.05
   6   6     0.04   0.04  -0.02     0.08   0.00   0.03    -0.02   0.01  -0.04
   7   8     0.27   0.12   0.05     0.19   0.03   0.07     0.00   0.01  -0.02
   8   8    -0.14  -0.02  -0.08    -0.02  -0.03  -0.01    -0.03   0.02  -0.03
   9   6     0.04   0.05  -0.01    -0.04  -0.03   0.00    -0.01   0.03  -0.01
  10   1     0.09   0.29   0.24    -0.03   0.01   0.13    -0.01   0.05   0.00
  11   1     0.35  -0.05  -0.15     0.05  -0.03  -0.08     0.01   0.02  -0.01
  12   1    -0.21  -0.04  -0.09    -0.16  -0.06  -0.03    -0.02   0.04  -0.02
  13   1    -0.20  -0.03  -0.08    -0.01  -0.02  -0.01    -0.08  -0.01  -0.05
  14   6     0.04  -0.01  -0.07    -0.01   0.04  -0.01    -0.07  -0.07   0.11
  15   6    -0.01  -0.04  -0.05     0.01   0.04  -0.01    -0.02  -0.03   0.08
  16   1     0.10   0.04  -0.09    -0.01   0.05  -0.01    -0.13  -0.12   0.13
  17   1     0.01  -0.03  -0.11    -0.03   0.04  -0.01    -0.05  -0.05   0.16
  18   6    -0.03  -0.03  -0.02     0.01   0.04   0.00     0.09   0.02   0.05
  19   1    -0.03  -0.09  -0.06     0.01   0.05   0.00    -0.01   0.02   0.09
  20   8    -0.04  -0.01  -0.01     0.05   0.09   0.01     0.31   0.12   0.07
  21   7    -0.01  -0.04   0.00    -0.06  -0.04   0.00    -0.03  -0.04  -0.02
  22   1    -0.08   0.06  -0.05     0.05   0.00   0.00     0.01   0.01  -0.02
  23   1     0.11  -0.07   0.04     0.02  -0.02   0.00    -0.17  -0.03  -0.03
  24   1     0.09  -0.06   0.13    -0.03  -0.02   0.00    -0.12  -0.02  -0.02
  25   1    -0.04   0.05   0.16    -0.04  -0.04   0.00     0.03   0.02  -0.06
  26   1    -0.10   0.11   0.05     0.00  -0.03   0.00     0.07   0.02  -0.05
  27   6    -0.07  -0.15   0.02     0.05   0.11  -0.04    -0.14  -0.09   0.02
  28   1    -0.11  -0.21   0.03     0.07   0.13  -0.02    -0.12  -0.01  -0.04
  29   1    -0.08  -0.18  -0.04     0.12   0.14   0.04    -0.27  -0.10   0.01
  30   1    -0.09  -0.14   0.10     0.04   0.16  -0.15    -0.09  -0.19   0.08
  31   6     0.08   0.03   0.07    -0.30  -0.17  -0.04     0.01  -0.01  -0.01
  32   1     0.13   0.13   0.02    -0.32  -0.32   0.00     0.34   0.11  -0.21
  33   1     0.05   0.01   0.05    -0.33  -0.26  -0.02    -0.26  -0.22  -0.19
  34   1     0.13   0.00   0.18    -0.45  -0.05  -0.13    -0.02   0.09   0.38
                     7                      8                      9
                     A                      A                      A
 Frequencies --   103.3237               114.7335               120.6362
 Red. masses --     4.2055                 2.2625                 1.2216
 Frc consts  --     0.0265                 0.0175                 0.0105
 IR Inten    --     0.2008                 2.3233                 0.1691
 Atom AN      X      Y      Z        X      Y      Z        X      Y      Z
   1   6    -0.10   0.11  -0.09     0.00  -0.09   0.08    -0.02   0.01  -0.01
   2   6    -0.02   0.07  -0.11    -0.04  -0.03   0.09    -0.01   0.01  -0.01
   3   6    -0.01   0.01  -0.03    -0.04   0.03   0.01    -0.01   0.00  -0.01
   4   6     0.01   0.04   0.04    -0.02   0.01  -0.07    -0.01   0.01   0.00
   5   7     0.04   0.07   0.08    -0.03  -0.03  -0.10    -0.01   0.01   0.01
   6   6     0.11   0.09   0.06     0.04   0.01  -0.05    -0.01   0.01   0.00
   7   8     0.15   0.13   0.04     0.05  -0.03  -0.01    -0.01   0.02  -0.01
   8   8     0.18   0.02   0.06     0.11   0.12   0.00    -0.01  -0.01   0.00
   9   6    -0.06  -0.11  -0.14    -0.12   0.07   0.04     0.03   0.00  -0.01
  10   1    -0.11  -0.38  -0.33    -0.18  -0.26  -0.28     0.04   0.06   0.07
  11   1    -0.35   0.08  -0.13    -0.52   0.16   0.28     0.12  -0.01  -0.08
  12   1     0.11  -0.14  -0.08     0.20   0.28   0.14    -0.05  -0.05  -0.04
  13   1     0.13   0.09   0.09    -0.12  -0.04  -0.11     0.00   0.01   0.01
  14   6    -0.03  -0.05   0.05    -0.01  -0.02  -0.01    -0.01  -0.01   0.00
  15   6    -0.04  -0.04   0.03    -0.01  -0.02  -0.01    -0.01  -0.02   0.01
  16   1    -0.12  -0.11   0.07     0.02   0.00  -0.02    -0.02   0.00   0.00
  17   1     0.03  -0.04   0.09    -0.05  -0.03  -0.03    -0.01  -0.02  -0.01
  18   6    -0.05  -0.07   0.01     0.00  -0.01   0.00     0.02   0.00   0.02
  19   1     0.01  -0.01   0.04    -0.01  -0.03  -0.01    -0.01  -0.03   0.01
  20   8    -0.07  -0.10   0.00     0.02   0.02   0.01     0.06   0.05   0.03
  21   7    -0.05  -0.05  -0.01     0.01  -0.01   0.01     0.00  -0.02   0.01
  22   1    -0.02   0.01   0.05    -0.01   0.05  -0.09    -0.02   0.00   0.01
  23   1    -0.18   0.14  -0.05     0.05  -0.12   0.04    -0.03   0.02  -0.01
  24   1    -0.07   0.15  -0.15     0.00  -0.12   0.13    -0.01   0.02  -0.02
  25   1     0.04   0.05  -0.18    -0.08  -0.02   0.15     0.00   0.01  -0.02
  26   1     0.00  -0.06  -0.04    -0.06   0.10   0.02    -0.01  -0.01  -0.01
  27   6    -0.09  -0.08   0.01     0.02  -0.01   0.01    -0.02  -0.03   0.02
  28   1    -0.09  -0.07  -0.01     0.02  -0.03   0.02    -0.03  -0.04   0.01
  29   1    -0.14  -0.09   0.00     0.05  -0.01   0.00    -0.03  -0.03   0.01
  30   1    -0.08  -0.12   0.05     0.01   0.01   0.00    -0.03  -0.03   0.04
  31   6     0.02  -0.01  -0.01     0.01  -0.02   0.01     0.02  -0.03  -0.03
  32   1     0.03   0.02  -0.02    -0.11  -0.06   0.08    -0.42  -0.20   0.23
  33   1     0.03   0.02  -0.02     0.11   0.07   0.07     0.39   0.32   0.18
  34   1     0.07  -0.05   0.01     0.02  -0.06  -0.13     0.10  -0.21  -0.57
                    10                     11                     12
                     A                      A                      A
 Frequencies --   145.0886               149.0318               173.2628
 Red. masses --     3.7635                 1.6987                 3.7369
 Frc consts  --     0.0467                 0.0222                 0.0661
 IR Inten    --     3.4295                 0.4466                15.1177
 Atom AN      X      Y      Z        X      Y      Z        X      Y      Z
   1   6     0.10  -0.03   0.00    -0.04  -0.02   0.03    -0.15   0.02   0.04
   2   6     0.14  -0.01  -0.03    -0.04  -0.02   0.03    -0.11  -0.03   0.04
   3   6     0.13  -0.01  -0.03    -0.01   0.01   0.01     0.01   0.00   0.04
   4   6     0.05  -0.05  -0.03     0.04   0.03  -0.02     0.17   0.08   0.05
   5   7     0.04  -0.06  -0.05     0.09   0.01  -0.01     0.24   0.07   0.07
   6   6     0.04  -0.07  -0.03     0.06   0.01  -0.03     0.04   0.00  -0.04
   7   8     0.05  -0.09   0.01    -0.04  -0.04  -0.04     0.00  -0.01  -0.05
   8   8     0.01  -0.02  -0.02     0.11   0.08   0.01    -0.17  -0.03  -0.09
   9   6    -0.01  -0.01   0.05    -0.06   0.04   0.02     0.03   0.09   0.06
  10   1    -0.02  -0.06   0.01    -0.01   0.14   0.55     0.01   0.09  -0.23
  11   1    -0.07  -0.02   0.12     0.29   0.06  -0.33    -0.13  -0.04   0.37
  12   1     0.04   0.07   0.06    -0.59  -0.12  -0.14     0.34   0.28   0.16
  13   1     0.01  -0.06  -0.06     0.12   0.01   0.00     0.32   0.05   0.11
  14   6     0.02   0.10   0.10    -0.02  -0.01   0.01    -0.03  -0.02   0.00
  15   6     0.05   0.14   0.05     0.00   0.00   0.00     0.01   0.01  -0.03
  16   1     0.03   0.05   0.10    -0.03  -0.03   0.01    -0.09  -0.06   0.02
  17   1     0.07   0.13   0.16    -0.04  -0.01   0.03    -0.09  -0.01   0.04
  18   6    -0.05   0.08   0.01    -0.01  -0.01  -0.01     0.00  -0.01  -0.04
  19   1     0.03   0.17   0.06     0.02   0.02   0.00     0.09   0.06  -0.01
  20   8    -0.11   0.03   0.00    -0.03  -0.02  -0.01    -0.03  -0.03  -0.04
  21   7    -0.11   0.04  -0.03    -0.01  -0.01   0.00     0.00  -0.03  -0.02
  22   1     0.03  -0.06  -0.04     0.03   0.03  -0.03     0.15   0.09   0.03
  23   1     0.05  -0.06  -0.03    -0.02  -0.01   0.03    -0.06   0.05   0.07
  24   1     0.03  -0.06   0.02    -0.05  -0.02   0.03    -0.15   0.04   0.00
  25   1     0.17   0.00  -0.03    -0.07  -0.02   0.05    -0.20  -0.07   0.03
  26   1     0.18   0.01  -0.03    -0.04   0.02   0.01    -0.03  -0.01   0.04
  27   6    -0.23  -0.08   0.01    -0.01  -0.03   0.00     0.00  -0.09  -0.02
  28   1    -0.15   0.09  -0.04     0.00  -0.01   0.00     0.04  -0.03  -0.01
  29   1    -0.51  -0.11  -0.02    -0.04  -0.04   0.00    -0.10  -0.10  -0.03
  30   1    -0.12  -0.33   0.10     0.00  -0.06   0.00     0.04  -0.19   0.00
  31   6    -0.05   0.08  -0.01     0.00   0.00   0.01     0.00  -0.02   0.02
  32   1    -0.18   0.07   0.06     0.02   0.02   0.00    -0.07  -0.02   0.05
  33   1     0.07   0.20   0.05    -0.02  -0.02   0.01     0.06   0.01   0.06
  34   1     0.01  -0.01  -0.15     0.00   0.00   0.04     0.01  -0.04  -0.04
                    13                     14                     15
                     A                      A                      A
 Frequencies --   216.4828               260.2139               268.3710
 Red. masses --     3.4402                 3.4095                 3.1043
 Frc consts  --     0.0950                 0.1360                 0.1317
 IR Inten    --     0.5329                19.9218                12.0832
 Atom AN      X      Y      Z        X      Y      Z        X      Y      Z
   1   6    -0.11  -0.09   0.08     0.10  -0.05  -0.06     0.00   0.05   0.01
   2   6    -0.01  -0.04   0.04    -0.11  -0.13   0.00     0.07   0.10  -0.02
   3   6     0.17   0.04   0.00    -0.13  -0.10  -0.04    -0.08   0.02   0.03
   4   6     0.14   0.04   0.05    -0.02  -0.04  -0.04    -0.13  -0.02  -0.01
   5   7    -0.14   0.01  -0.04     0.00   0.05   0.00     0.01  -0.02   0.02
   6   6    -0.08   0.05   0.07    -0.02   0.06   0.02     0.02  -0.04  -0.02
   7   8    -0.05   0.06   0.07    -0.03   0.09  -0.01     0.02  -0.04  -0.01
   8   8     0.02   0.00   0.08    -0.02   0.04   0.01     0.01  -0.03  -0.02
   9   6     0.04  -0.05  -0.08     0.01   0.03  -0.06    -0.01  -0.01   0.05
  10   1     0.04  -0.02  -0.09     0.01   0.05  -0.09    -0.01  -0.03   0.07
  11   1     0.05   0.01  -0.17     0.01   0.05  -0.09    -0.01  -0.03   0.08
  12   1     0.04  -0.19  -0.08     0.03  -0.03  -0.05    -0.03   0.05   0.04
  13   1    -0.32  -0.01  -0.07    -0.09   0.06  -0.03     0.11  -0.02   0.05
  14   6    -0.04  -0.02   0.00     0.03   0.05   0.05    -0.04  -0.11   0.14
  15   6     0.01   0.05  -0.07     0.10   0.06   0.07    -0.02   0.03  -0.05
  16   1    -0.06  -0.08   0.01     0.05   0.08   0.05    -0.08  -0.35   0.15
  17   1    -0.12   0.01   0.07     0.03   0.05   0.03     0.07  -0.02   0.35
  18   6     0.02   0.03  -0.10     0.10   0.04   0.03     0.05   0.05  -0.11
  19   1     0.07   0.10  -0.05     0.03   0.05   0.06    -0.05   0.09  -0.04
  20   8    -0.02   0.04  -0.10    -0.01  -0.11  -0.01     0.00   0.03  -0.12
  21   7     0.05   0.00  -0.05     0.18   0.10   0.01     0.15   0.07  -0.04
  22   1     0.25   0.04   0.12     0.04  -0.03   0.00    -0.17  -0.01  -0.05
  23   1    -0.02  -0.11   0.05     0.14   0.00   0.00    -0.21   0.04  -0.01
  24   1    -0.16  -0.13   0.11     0.05  -0.03  -0.10     0.07   0.07   0.01
  25   1    -0.05  -0.05   0.07    -0.29  -0.18   0.06     0.25   0.16  -0.07
  26   1     0.36   0.12   0.00    -0.27  -0.13  -0.04    -0.14  -0.01   0.02
  27   6     0.06  -0.11  -0.04    -0.05  -0.04   0.07     0.05  -0.07   0.00
  28   1     0.17   0.03  -0.03     0.01   0.16  -0.03    -0.04  -0.19   0.00
  29   1    -0.14  -0.13  -0.06    -0.40  -0.09   0.03     0.09  -0.09  -0.07
  30   1     0.16  -0.30  -0.02     0.07  -0.32   0.25    -0.01   0.01   0.12
  31   6    -0.04   0.00   0.05    -0.05  -0.04  -0.03    -0.08   0.02   0.12
  32   1    -0.13   0.00   0.10    -0.06  -0.18   0.01    -0.22  -0.01   0.20
  33   1     0.03  -0.04   0.14    -0.09  -0.13  -0.02     0.01  -0.09   0.27
  34   1    -0.08   0.03  -0.01    -0.20   0.09  -0.11    -0.20   0.11   0.01
                    16                     17                     18
                     A                      A                      A
 Frequencies --   290.9284               314.4071               320.1190
 Red. masses --     3.5253                 4.2348                 4.1539
 Frc consts  --     0.1758                 0.2466                 0.2508
 IR Inten    --     3.8124                 9.4434                12.2553
 Atom AN      X      Y      Z        X      Y      Z        X      Y      Z
   1   6    -0.09   0.10   0.00    -0.04  -0.05   0.06    -0.02  -0.17   0.08
   2   6    -0.01   0.12  -0.02     0.05   0.05   0.02     0.18  -0.08   0.01
   3   6     0.06   0.07   0.06     0.01   0.09  -0.05     0.13  -0.06  -0.04
   4   6     0.03   0.07   0.11    -0.02   0.03  -0.16    -0.04  -0.11   0.00
   5   7    -0.10  -0.08   0.00     0.16   0.06  -0.09     0.06   0.05   0.12
   6   6     0.01  -0.08  -0.06     0.00   0.04   0.06     0.01   0.04   0.01
   7   8     0.04  -0.07  -0.05    -0.03  -0.16   0.22    -0.01   0.21  -0.15
   8   8     0.05  -0.04  -0.04    -0.06   0.01   0.05    -0.01   0.02  -0.01
   9   6    -0.03  -0.01   0.09     0.06  -0.03  -0.14    -0.03   0.04   0.04
  10   1    -0.03  -0.07   0.16     0.07   0.05  -0.25    -0.03   0.03   0.06
  11   1    -0.03  -0.05   0.14     0.07   0.02  -0.22    -0.03   0.03   0.06
  12   1    -0.09   0.11   0.07     0.15  -0.21  -0.12    -0.04   0.09   0.04
  13   1    -0.07  -0.11   0.04     0.15   0.09  -0.11     0.15   0.05   0.14
  14   6    -0.03   0.06  -0.15    -0.08  -0.03  -0.07    -0.09  -0.06  -0.08
  15   6    -0.04  -0.06   0.01    -0.02  -0.05  -0.02    -0.05  -0.07  -0.04
  16   1    -0.01   0.26  -0.16    -0.05   0.05  -0.08    -0.02   0.01  -0.09
  17   1    -0.11  -0.02  -0.34    -0.12  -0.06  -0.14    -0.15  -0.09  -0.13
  18   6     0.05   0.00   0.05     0.03   0.01   0.04     0.00   0.00   0.02
  19   1    -0.04  -0.12   0.00     0.02  -0.06  -0.02    -0.07  -0.10  -0.05
  20   8     0.00  -0.08   0.02    -0.03  -0.01   0.03    -0.05   0.03   0.03
  21   7     0.16   0.10   0.01     0.10   0.07   0.02     0.06   0.07   0.01
  22   1     0.06   0.09   0.11    -0.17   0.00  -0.22    -0.17  -0.21   0.00
  23   1    -0.05   0.04  -0.08    -0.09  -0.05   0.05    -0.09  -0.13   0.13
  24   1    -0.07   0.08   0.04    -0.04  -0.06   0.10    -0.06  -0.18   0.08
  25   1     0.04   0.11  -0.08     0.14   0.11   0.07     0.39   0.01  -0.01
  26   1     0.19   0.06   0.05    -0.03   0.17  -0.04     0.24  -0.02  -0.04
  27   6    -0.05  -0.02   0.07    -0.08   0.02   0.07    -0.07   0.03   0.04
  28   1    -0.05   0.08  -0.02    -0.26  -0.19   0.02    -0.25  -0.19   0.02
  29   1    -0.28  -0.07   0.00     0.08   0.00  -0.02     0.11   0.01  -0.04
  30   1     0.02  -0.20   0.25    -0.18   0.18   0.21    -0.18   0.21   0.16
  31   6    -0.04  -0.04  -0.08    -0.01  -0.02  -0.06    -0.02   0.01  -0.04
  32   1     0.02  -0.20  -0.08     0.03  -0.12  -0.06     0.01  -0.05  -0.04
  33   1    -0.13  -0.13  -0.12    -0.07  -0.06  -0.10    -0.07  -0.03  -0.06
  34   1    -0.18   0.09  -0.12    -0.09   0.05  -0.08    -0.08   0.06  -0.05
                    19                     20                     21
                     A                      A                      A
 Frequencies --   341.6951               366.6816               398.2689
 Red. masses --     1.3648                 4.1772                 3.4767
 Frc consts  --     0.0939                 0.3309                 0.3249
 IR Inten    --     2.3033                 9.2924                14.6653
 Atom AN      X      Y      Z        X      Y      Z        X      Y      Z
   1   6     0.00   0.02   0.03    -0.01  -0.01   0.02     0.02   0.08  -0.03
   2   6     0.06   0.02   0.02     0.04  -0.01   0.01    -0.06  -0.09   0.03
   3   6    -0.02  -0.01   0.01     0.03   0.00  -0.01     0.09  -0.06   0.03
   4   6    -0.04  -0.03  -0.04    -0.03  -0.03  -0.03     0.10  -0.03   0.05
   5   7     0.03   0.01   0.01     0.04   0.01   0.01    -0.06  -0.01   0.01
   6   6     0.01   0.01   0.01     0.01   0.01   0.01    -0.01   0.00  -0.04
   7   8     0.00   0.00   0.01     0.00   0.00   0.01     0.03  -0.06   0.03
   8   8    -0.01   0.01   0.00    -0.01   0.01   0.00     0.00   0.07  -0.04
   9   6     0.00   0.01  -0.02     0.00   0.01  -0.02     0.00   0.07  -0.08
  10   1     0.00   0.02  -0.03     0.00   0.02  -0.03     0.01   0.09  -0.11
  11   1     0.00   0.01  -0.02     0.00   0.02  -0.03     0.01   0.08  -0.11
  12   1     0.01  -0.01  -0.01     0.01  -0.01  -0.02     0.02   0.01  -0.08
  13   1     0.09   0.04   0.00     0.04   0.02   0.00     0.18   0.03   0.05
  14   6     0.02  -0.04  -0.02    -0.05   0.11  -0.07     0.19  -0.14   0.02
  15   6    -0.07  -0.06  -0.02    -0.06  -0.02   0.09    -0.10  -0.14  -0.06
  16   1     0.04  -0.03  -0.03     0.03   0.32  -0.09     0.17  -0.27   0.03
  17   1     0.01  -0.05  -0.04    -0.11   0.02  -0.28     0.24  -0.10   0.13
  18   6    -0.04  -0.03   0.00    -0.02  -0.01   0.01    -0.05  -0.06   0.01
  19   1    -0.14  -0.06  -0.02    -0.09  -0.11   0.06    -0.14  -0.12  -0.06
  20   8     0.00   0.03   0.02     0.21  -0.27  -0.05     0.00   0.04   0.04
  21   7    -0.01   0.01   0.01    -0.08   0.05  -0.06     0.03   0.10  -0.03
  22   1     0.00  -0.03  -0.03    -0.05  -0.04  -0.03     0.04  -0.07   0.05
  23   1    -0.02   0.03   0.05     0.02  -0.01   0.03     0.20   0.13   0.04
  24   1     0.05   0.03   0.01    -0.06  -0.02   0.03     0.07   0.14  -0.13
  25   1     0.16   0.05  -0.01     0.08   0.01   0.00    -0.27  -0.20   0.00
  26   1    -0.05   0.01   0.01     0.06   0.03  -0.01     0.17  -0.03   0.03
  27   6     0.05   0.01  -0.01     0.01   0.01  -0.08    -0.10   0.07   0.00
  28   1     0.36   0.50  -0.05     0.04  -0.02  -0.01    -0.21  -0.06  -0.03
  29   1    -0.45   0.01   0.08     0.05   0.02  -0.08     0.00   0.06  -0.06
  30   1     0.29  -0.44  -0.07     0.00   0.04  -0.13    -0.15   0.16   0.09
  31   6    -0.01   0.01   0.00    -0.11   0.13   0.19    -0.08   0.10   0.05
  32   1     0.00   0.00  -0.01    -0.33   0.24   0.29    -0.16   0.11   0.09
  33   1    -0.02   0.00  -0.01     0.08   0.11   0.41    -0.04   0.02   0.14
  34   1    -0.01   0.01   0.00    -0.12   0.12   0.09    -0.15   0.16   0.01
                    22                     23                     24
                     A                      A                      A
 Frequencies --   418.9411               437.7570               466.6078
 Red. masses --     4.2337                 2.4786                 2.6561
 Frc consts  --     0.4378                 0.2798                 0.3407
 IR Inten    --     5.5070                 0.1544                 4.2675
 Atom AN      X      Y      Z        X      Y      Z        X      Y      Z
   1   6     0.01  -0.05  -0.05     0.04   0.18   0.04    -0.03   0.02   0.01
   2   6    -0.08   0.05  -0.02    -0.05  -0.07   0.08     0.04   0.00   0.00
   3   6    -0.01   0.11  -0.09     0.12   0.02   0.01    -0.05  -0.04   0.02
   4   6     0.05   0.11  -0.12    -0.04  -0.10  -0.14     0.04   0.00  -0.01
   5   7     0.10   0.03  -0.12    -0.03   0.01  -0.06     0.04  -0.02  -0.03
   6   6     0.01   0.00   0.08    -0.02   0.00   0.01     0.00   0.00   0.01
   7   8    -0.05   0.13  -0.06     0.01   0.05  -0.01    -0.01   0.02  -0.01
   8   8     0.02  -0.17   0.09     0.01  -0.04   0.01    -0.01   0.00   0.02
   9   6     0.00  -0.16   0.19     0.00  -0.04   0.05     0.00   0.00   0.00
  10   1    -0.01  -0.21   0.27     0.00  -0.06   0.08     0.00   0.01  -0.01
  11   1    -0.01  -0.22   0.27     0.00  -0.06   0.08     0.00   0.01  -0.01
  12   1    -0.05  -0.01   0.19    -0.02   0.01   0.05     0.01  -0.02   0.00
  13   1    -0.26   0.00  -0.20     0.50   0.19  -0.04    -0.28  -0.03  -0.11
  14   6     0.12  -0.08   0.00    -0.10   0.02   0.02     0.06   0.04   0.04
  15   6    -0.02  -0.08  -0.05    -0.04   0.02   0.03    -0.06  -0.02   0.07
  16   1     0.09  -0.16   0.00    -0.04   0.03   0.01     0.04   0.06   0.05
  17   1     0.13  -0.06   0.06     0.00   0.02   0.00     0.05   0.02   0.02
  18   6    -0.02  -0.04   0.02    -0.01   0.01  -0.01    -0.08  -0.01   0.07
  19   1     0.00  -0.04  -0.04    -0.02   0.00   0.03    -0.02  -0.13   0.05
  20   8     0.01   0.00   0.03     0.01   0.00  -0.01    -0.01   0.02   0.08
  21   7     0.00   0.05  -0.01     0.01   0.00   0.01    -0.02   0.12  -0.03
  22   1     0.02   0.14  -0.15    -0.12  -0.11  -0.18     0.10   0.03   0.00
  23   1     0.16  -0.11  -0.12     0.03   0.29   0.19    -0.01   0.00  -0.01
  24   1     0.04  -0.11   0.06    -0.01   0.28  -0.15    -0.02   0.02   0.01
  25   1    -0.23   0.04   0.10    -0.30  -0.19   0.07     0.14   0.02  -0.04
  26   1    -0.03   0.17  -0.08     0.24   0.20   0.03    -0.17  -0.08   0.02
  27   6    -0.07   0.06   0.00     0.04  -0.05   0.01     0.13  -0.18  -0.07
  28   1    -0.07   0.10  -0.03     0.03  -0.11   0.04     0.13  -0.47   0.18
  29   1    -0.11   0.06   0.00     0.08  -0.06  -0.02     0.31  -0.26  -0.30
  30   1    -0.05   0.02   0.03     0.02  -0.02   0.01     0.08  -0.09  -0.06
  31   6    -0.04   0.06   0.04     0.01  -0.02  -0.03    -0.07   0.08  -0.12
  32   1    -0.09   0.08   0.07     0.05  -0.06  -0.05     0.00  -0.03  -0.14
  33   1    -0.01   0.02   0.10    -0.02  -0.02  -0.07    -0.13   0.05  -0.18
  34   1    -0.07   0.08   0.03     0.01  -0.02  -0.04    -0.13   0.13  -0.14
                    25                     26                     27
                     A                      A                      A
 Frequencies --   490.5758               516.4805               529.2025
 Red. masses --     2.7150                 2.7671                 2.4190
 Frc consts  --     0.3850                 0.4349                 0.3991
 IR Inten    --     3.6354                32.5954                99.1858
 Atom AN      X      Y      Z        X      Y      Z        X      Y      Z
   1   6    -0.08   0.15   0.08     0.00  -0.03   0.02    -0.07  -0.07   0.04
   2   6     0.10  -0.03   0.04     0.02  -0.01   0.01     0.08  -0.04  -0.01
   3   6    -0.07  -0.11   0.10    -0.06  -0.01  -0.01    -0.07  -0.03  -0.07
   4   6     0.14  -0.06  -0.05     0.04   0.04   0.00     0.11   0.07  -0.02
   5   7     0.02  -0.06  -0.12    -0.11   0.04  -0.01    -0.11   0.05  -0.04
   6   6    -0.02  -0.01   0.03    -0.03   0.01  -0.02    -0.04   0.03  -0.02
   7   8    -0.01   0.06  -0.04     0.01  -0.01   0.03     0.00   0.00   0.04
   8   8    -0.02   0.01   0.05     0.02  -0.03  -0.03     0.03  -0.04  -0.03
   9   6     0.00   0.00   0.00     0.00  -0.02   0.03     0.00  -0.03   0.04
  10   1     0.00   0.02  -0.03     0.00  -0.05   0.07     0.00  -0.06   0.08
  11   1     0.00   0.02  -0.03     0.00  -0.05   0.06     0.00  -0.07   0.08
  12   1     0.02  -0.06   0.00    -0.03   0.05   0.02    -0.03   0.06   0.03
  13   1    -0.42   0.01  -0.27     0.62   0.10   0.13     0.71   0.12   0.12
  14   6    -0.01  -0.02  -0.04    -0.06  -0.09  -0.06     0.11   0.08   0.03
  15   6     0.04   0.00  -0.03     0.20  -0.03  -0.01    -0.11   0.03   0.01
  16   1    -0.07  -0.03  -0.03    -0.15  -0.06  -0.04     0.14   0.10   0.02
  17   1    -0.03  -0.02  -0.04    -0.08  -0.10  -0.09     0.01   0.08   0.04
  18   6     0.04   0.01  -0.01     0.10  -0.01   0.09    -0.05   0.01  -0.05
  19   1     0.09   0.06  -0.02     0.35   0.00   0.02    -0.16   0.03   0.00
  20   8     0.00  -0.01  -0.02    -0.05   0.01   0.11     0.04  -0.01  -0.06
  21   7     0.00  -0.03   0.00    -0.03   0.02  -0.07     0.01   0.00   0.04
  22   1     0.15   0.01  -0.09     0.05   0.05   0.00     0.07   0.04  -0.02
  23   1    -0.21   0.18   0.12    -0.16   0.04   0.10     0.00   0.00   0.10
  24   1     0.02   0.25  -0.08     0.10   0.03  -0.04    -0.08  -0.05   0.00
  25   1     0.32  -0.01  -0.13     0.13   0.05   0.01     0.25   0.04  -0.01
  26   1    -0.36  -0.19   0.11    -0.19  -0.04  -0.01    -0.32  -0.12  -0.06
  27   6    -0.08   0.07   0.02     0.00  -0.01  -0.11    -0.01   0.00   0.07
  28   1    -0.15   0.05  -0.05     0.06   0.03  -0.06    -0.06  -0.06   0.05
  29   1    -0.03   0.09   0.07    -0.04  -0.03  -0.16     0.05   0.01   0.07
  30   1    -0.10   0.11   0.02     0.03  -0.07  -0.15    -0.03   0.05   0.09
  31   6     0.01  -0.01   0.04    -0.05   0.08   0.01     0.02  -0.04  -0.01
  32   1    -0.02   0.03   0.05    -0.11   0.17   0.02     0.06  -0.10  -0.02
  33   1     0.04  -0.01   0.06     0.00   0.02   0.09    -0.01   0.00  -0.06
  34   1     0.03  -0.03   0.05    -0.06   0.10   0.03     0.03  -0.04  -0.02
                    28                     29                     30
                     A                      A                      A
 Frequencies --   566.0660               605.4846               639.3342
 Red. masses --     3.4189                 2.8423                 8.8218
 Frc consts  --     0.6455                 0.6139                 2.1245
 IR Inten    --     2.1668                11.0242               105.5071
 Atom AN      X      Y      Z        X      Y      Z        X      Y      Z
   1   6    -0.02   0.01   0.00     0.00  -0.05  -0.04     0.00  -0.03  -0.02
   2   6     0.01  -0.01  -0.01    -0.04   0.10  -0.04    -0.02   0.04  -0.02
   3   6     0.00   0.00  -0.02    -0.01   0.03   0.07     0.01   0.00   0.04
   4   6     0.00   0.00  -0.01     0.03   0.00  -0.01     0.01  -0.01   0.02
   5   7     0.02   0.00  -0.01     0.04  -0.14  -0.05    -0.19  -0.15  -0.09
   6   6     0.01   0.01   0.01    -0.10  -0.15   0.02     0.66   0.17   0.24
   7   8    -0.01   0.00   0.00     0.05   0.07  -0.08    -0.18  -0.03  -0.09
   8   8     0.00   0.00   0.00    -0.06   0.09   0.18    -0.18  -0.01   0.01
   9   6     0.00   0.00   0.00     0.00   0.04  -0.03    -0.01   0.03  -0.03
  10   1     0.00   0.00   0.00     0.00   0.15  -0.19    -0.01   0.12  -0.15
  11   1     0.00  -0.01   0.00     0.01   0.15  -0.20    -0.01   0.06  -0.07
  12   1     0.00   0.00   0.00     0.12  -0.29  -0.01     0.10  -0.12   0.00
  13   1    -0.03   0.00  -0.03     0.70  -0.09   0.08     0.48   0.00  -0.02
  14   6     0.02   0.10   0.08     0.02   0.01   0.01     0.01   0.00   0.00
  15   6    -0.08  -0.07   0.22     0.00   0.00   0.00     0.00   0.00   0.00
  16   1     0.14   0.47   0.05     0.01   0.01   0.01     0.03   0.00   0.00
  17   1    -0.09  -0.03  -0.25     0.02   0.01   0.01     0.00   0.00   0.00
  18   6     0.08  -0.08  -0.02     0.00   0.00   0.00     0.03   0.03   0.00
  19   1    -0.26  -0.12   0.18     0.01   0.01   0.01    -0.03  -0.02  -0.01
  20   8    -0.11   0.12   0.03     0.00   0.00   0.00     0.00  -0.01   0.00
  21   7     0.13  -0.08  -0.15     0.00   0.00   0.00    -0.02   0.00   0.01
  22   1    -0.03  -0.01  -0.03    -0.05   0.07  -0.12     0.01   0.04  -0.02
  23   1     0.05   0.00  -0.01     0.02  -0.15  -0.18    -0.01  -0.07  -0.08
  24   1    -0.12  -0.01   0.01     0.01  -0.15   0.14     0.05  -0.06   0.06
  25   1    -0.01  -0.01  -0.01    -0.07   0.09  -0.02    -0.01   0.04  -0.02
  26   1    -0.03  -0.01  -0.02     0.00   0.00   0.06     0.04  -0.01   0.04
  27   6    -0.03   0.01  -0.16     0.00   0.00   0.00     0.00   0.00   0.00
  28   1    -0.14   0.03  -0.31     0.01   0.01   0.00     0.01  -0.01   0.02
  29   1    -0.02   0.08   0.00    -0.01   0.00   0.00     0.01  -0.01  -0.01
  30   1    -0.08   0.10  -0.12     0.00  -0.01   0.00     0.00  -0.01   0.00
  31   6     0.05  -0.06   0.07     0.00   0.00   0.00     0.00   0.00   0.00
[...]
 0.00000057,-0.00000149,-0.00000004,-0.00000216,0.00000225,-0.00000548,
 0.00006734,0.00001079,-0.00005105,0.00127483,-0.00054212,-0.00355565,0
 .00001339,-0.00000785,-0.00001140,-0.00001252,-0.00000960,-0.00000446,
 -0.00000916,0.00061790,0.00046416,0.00102612,-0.00297174,0.00057929,0.
 00001738,-0.00013591,-0.00016281,0.00090632,0.00562106,0.00316779,-0.0
 0021548,-0.00005559,0.00006301,0.00000323,0.00000045,-0.00000044,0.000
 00562,0.00000091,-0.00000123,0.00000555,0.00000108,-0.00000222,0.00001
 597,0.00001466,-0.00000217,0.01724283,-0.25850049,0.08051980,0.0082069
 9,-0.02072517,0.00122366,-0.02037675,0.29731163,-0.00012090,0.00000061
 ,-0.00004694,-0.00003632,0.00003170,0.00003603,-0.00001824,-0.00005802
 ,0.00001280,0.00024271,0.00017932,-0.00019808,-0.00006408,-0.00025562,
 0.00017263,-0.00007702,0.00037576,-0.00005112,0.00007203,-0.00015745,-
 0.00002954,0.00001098,-0.00008283,0.00006231,-0.00002789,0.00004499,-0
 .00000829,-0.00000665,-0.00000301,0.00000212,0.00000552,-0.00000332,0.
 00000228,0.00000585,-0.00001008,-0.00000045,0.00003819,-0.00000166,0.0
 0000900,0.00012513,-0.00012162,-0.00004730,0.00176357,-0.00162932,-0.0
 0342983,-0.00000814,0.00000728,-0.00001226,-0.00000559,-0.00001389,0.0
 0000197,0.00125431,0.00078133,-0.00374829,0.00300915,-0.00426729,-0.00
 312700,0.00002325,-0.00047082,0.00074689,-0.00584131,0.02170488,-0.007
 28003,0.00013973,0.00007274,-0.00000335,0.00001553,0.00000239,-0.00000
 600,0.00001119,-0.00000495,-0.00000678,0.00001657,-0.00000990,0.000008
 28,0.00002269,0.00000572,0.00002004,-0.00591766,0.07912519,-0.06784153
 ,0.00138395,-0.01034232,0.00458421,0.00322648,-0.08689483,0.08083077,-
 0.00006990,-0.00000660,-0.00003962,0.00000150,0.00005344,0.00005138,0.
 00011357,-0.00012413,0.00002952,-0.00242611,0.00207626,0.00240279,-0.0
 0013998,-0.00000679,0.00023368,-0.00016881,0.00023230,0.00033765,0.000
 02848,-0.00020598,-0.00023139,0.00002088,0.00002002,-0.00008025,0.0000
 1242,-0.00002071,0.00000559,0.00000282,0.00000096,-0.00000144,-0.00000
 233,0.00000095,-0.00000034,-0.00000253,0.00000376,0.00000036,0.0000262
 1,-0.00000583,0.00001349,0.00003128,-0.00004727,-0.00001199,0.00003155
 ,0.00010500,0.00013477,-0.00000127,0.00000181,0.00000276,-0.00000523,-
 0.00000066,-0.00000284,0.00026826,0.00000279,-0.00006452,0.00001521,-0
 .00006386,-0.00006531,-0.00010750,0.00002734,0.00004120,-0.00238519,-0
 .00308525,-0.00784218,-0.00563678,0.00040545,-0.00046443,0.00001523,-0
 .00000763,0.00000112,0.00001092,0.00000594,-0.00000083,-0.00001088,-0.
 00000146,0.00000283,0.00000211,0.00000166,-0.00001558,-0.22610277,-0.0
 9542846,-0.01909248,-0.02648075,-0.00655631,0.00361426,-0.00140367,-0.
 00773020,0.00109224,0.26471028,-0.00003899,0.00000822,-0.00001369,-0.0
 0002782,0.00000766,0.00000726,0.00003148,-0.00002842,0.00004070,0.0007
 2641,-0.00019993,-0.00066703,0.00006588,-0.00021835,0.00007596,-0.0002
 6628,0.00061312,0.00035401,0.00024700,-0.00034710,-0.00035528,0.000042
 87,-0.00004008,-0.00012156,-0.00000474,-0.00000093,0.00001168,-0.00000
 050,0.00000076,0.00000190,-0.00000089,-0.00000060,0.00000152,0.0000016
 3,-0.00000276,0.00000099,0.00001330,-0.00001183,0.00002016,0.00003724,
 -0.00002507,-0.00003710,0.00009392,0.00000907,-0.00015989,0.00000324,0
 .00000196,-0.00000736,-0.00001293,-0.00000135,0.00001072,0.00003158,-0
 .00008395,-0.00112315,-0.00005794,-0.00049107,-0.00004434,-0.00006155,
 -0.00014387,0.00011320,-0.00060985,0.00394996,-0.00233959,0.00422845,-
 0.00209579,-0.00085668,0.00000323,0.00000448,-0.00000324,0.00000189,-0
 .00000529,-0.00000172,0.00000708,-0.00000436,0.00000623,0.00001333,-0.
 00000104,0.00001378,-0.09860007,-0.09089636,-0.01014098,0.00930507,0.0
 0762800,-0.00001727,-0.02509608,-0.02050312,0.00209359,0.11003660,0.10
 263907,0.00009481,0.00001414,0.00004514,-0.00001143,-0.00003923,-0.000
 06261,-0.00003567,0.00008329,0.00005794,0.00055508,-0.00059475,-0.0002
 9723,0.00019181,0.00015255,-0.00022625,0.00020727,-0.00023916,-0.00045
 890,-0.00009424,0.00024903,0.00017811,0.00000301,-0.00002511,0.0001408
 1,-0.00002019,0.00001871,-0.00000471,-0.00000323,-0.00000304,-0.000000
 57,0.00000455,-0.00000107,0.00000047,0.00000190,-0.00000598,-0.0000000
 6,-0.00002864,-0.00001281,0.00000284,-0.00008210,0.00007002,0.00011062
 ,0.00011514,-0.00036405,0.00015907,-0.00000933,0.00002863,-0.00000456,
 0.00001144,-0.00000235,0.00000233,-0.00221788,0.00018709,0.00043123,0.
 00002081,-0.00027487,-0.00004777,0.00011295,0.00035455,-0.00018443,-0.
 02076394,-0.01167158,-0.01036644,0.00283103,-0.00071900,-0.00143708,-0
 .00002144,0.00000796,-0.00000450,-0.00001356,-0.00000685,0.00000141,0.
 00000238,0.00000255,0.00000158,0.00001887,-0.00000263,0.00000326,-0.01
 872947,-0.00930219,-0.04053908,0.01214919,0.00389722,0.00160314,0.0062
 4208,0.00526739,0.00240194,0.02027562,0.01316557,0.04861253,0.00033533
 ,0.00000162,0.00010752,0.00004753,-0.00009252,-0.00012362,-0.00002053,
 0.00003837,-0.00001179,0.00000246,-0.00003469,0.00004530,0.00014516,0.
 00004376,0.00000277,-0.00070491,-0.00020806,0.00044666,-0.00038957,0.0
 0007980,-0.00017042,0.00006188,0.00019645,-0.00022734,0.00002102,-0.00
 015693,0.00004068,-0.00003477,-0.00000981,0.00004049,-0.00001276,0.000
 00409,-0.00000537,-0.00001226,0.00002490,0.00000550,-0.00012279,0.0000
 0528,-0.00000333,-0.00065303,0.00067102,-0.00014132,0.00067633,0.00123
 975,0.00256643,0.00007338,-0.00001634,-0.00000347,-0.00002231,0.000058
 77,0.00005770,-0.01788765,0.02582714,0.00312106,0.00004044,-0.00000929
 ,0.00002557,-0.00311788,0.00350720,-0.00027943,-0.07374568,0.05980685,
 -0.02521841,-0.00013084,0.00002608,-0.00005133,-0.00003975,0.00000089,
 0.00001018,-0.00002088,0.00000776,0.00001551,-0.00002185,0.00001998,-0
 .00001261,-0.00001480,-0.00000596,-0.00002605,-0.00814337,0.00927600,-
 0.01148256,0.00090791,-0.00025405,0.00011815,0.00026238,-0.00020277,-0
 .00016035,-0.00022446,0.00010377,-0.00112640,0.52062410,-0.00005415,-0
 .00001764,-0.00004136,-0.00002713,0.00002671,0.00006066,-0.00005021,-0
 .00016706,0.00006166,0.00026205,0.00040224,-0.00039787,0.00000775,-0.0
 0068708,0.00046859,-0.00069941,0.00118720,0.00016732,0.00031628,-0.000
 51251,-0.00004595,0.00016829,-0.00015307,-0.00002727,-0.00015204,0.000
 04504,0.00000489,-0.00009147,-0.00001734,0.00006969,0.00002058,-0.0000
 1835,-0.00000100,0.00002578,-0.00001723,0.00000980,-0.00002023,-0.0000
 0851,0.00003335,0.00014413,0.00009571,-0.00005353,0.00039609,0.0007054
 2,-0.00006587,0.00005464,0.00001167,0.00000679,-0.00004957,0.00001543,
 0.00001974,0.01300571,-0.02203567,-0.00017603,0.00007750,-0.00000691,-
 0.00008787,0.00228422,-0.00256050,-0.00408116,0.07964385,-0.22278476,0
 .05739070,0.00012312,-0.00003003,-0.00007620,0.00000627,0.00000497,0.0
 0000230,0.00001283,0.00000007,0.00000183,0.00001461,0.00000780,-0.0000
 0172,0.00003127,0.00000373,-0.00001428,0.00237706,0.00052722,0.0126368
 1,0.00027498,0.00041377,0.00187328,0.00024225,-0.00021372,-0.00032435,
 0.00031807,0.00036513,-0.00021087,-0.00582905,0.52193685,0.00070065,-0
 .00001300,0.00028740,0.00001851,-0.00027701,-0.00048031,-0.00012671,0.
 00054433,0.00012217,-0.00018391,-0.00059191,0.00047911,0.00015756,0.00
 071268,-0.00039739,0.00034126,-0.00102565,-0.00033629,-0.00039474,0.00
 043708,0.00041180,-0.00002632,0.00014743,0.00007021,0.00005657,-0.0000
 6687,-0.00000201,0.00002415,0.00000593,-0.00001674,-0.00000418,0.00000
 573,-0.00000505,-0.00000939,0.00001490,-0.00000029,-0.00010929,-0.0000
 2323,-0.00001440,-0.00052528,0.00014609,0.00078976,0.00242750,-0.00161
 773,-0.00196672,0.00008527,0.00007545,0.00001780,-0.00001040,-0.000033
 15,-0.00007191,0.00273274,-0.01504665,0.01217151,0.00002925,-0.0000744
 7,-0.00016035,0.00311310,-0.00262958,-0.00187782,-0.02478319,0.0564358
 7,-0.10490420,0.00014148,-0.00004265,-0.00009372,-0.00010089,0.0000053
 2,0.00001761,-0.00003818,0.00000148,0.00001419,-0.00003471,0.00001717,
 -0.00000634,-0.00002272,-0.00002407,-0.00003230,-0.01327247,0.02894263
 ,-0.02001935,-0.00074217,0.00127158,-0.00351816,-0.00115749,-0.0005980
 1,-0.00317792,-0.00024254,0.00010376,-0.00018819,-0.00641839,0.0114695
 5,0.55733713,0.00011609,-0.00000083,0.00004568,0.00000816,-0.00003793,
 -0.00006424,-0.00000933,0.00006462,0.00001793,-0.00005690,-0.00009750,
 0.00005707,0.00003974,0.00012047,-0.00004721,-0.00000562,-0.00018872,-
 0.00013638,-0.00009490,0.00011434,0.00009369,0.00002316,0.00002960,0.0
 0004639,-0.00001598,-0.00002788,0.00000144,0.00000480,0.00000116,-0.00
 000499,0.00000422,-0.00000043,-0.00000134,-0.00000237,0.00000231,0.000
 00201,-0.00003343,-0.00000348,-0.00000303,-0.00012077,0.00008138,0.000
 11077,0.00026140,-0.00030309,0.00006326,0.00000881,0.00001221,0.000004
 54,0.00001065,0.00000146,-0.00000683,-0.00153944,0.00199782,-0.0013657
 9,0.00002696,-0.00002453,-0.00001325,-0.00242319,0.00173450,0.00176532
 ,-0.00122992,-0.00034932,-0.00940448,0.00002007,-0.00000901,-0.0000167
 6,-0.00001738,0.00000187,0.00000280,-0.00000744,0.00000107,0.00000409,
 -0.00000744,0.00000528,-0.00000233,-0.00000352,-0.00000382,-0.00000730
 ,-0.00026753,0.00113631,-0.00023881,0.00004100,-0.00000470,0.00009877,
 -0.00001556,-0.00004985,-0.00017428,0.00003209,-0.00002520,0.00003824,
 -0.09347977,-0.02281902,-0.10143672,0.10377590,-0.00008539,-0.00000129
 ,-0.00003435,0.00000708,0.00003263,0.00005717,0.00001994,-0.00005044,-
 0.00003242,-0.00000994,0.00001977,0.00001104,-0.00002989,0.00003735,-0
 .00002149,0.00009882,-0.00010808,-0.00006907,-0.00012447,0.00005871,0.
 00001076,-0.00001832,-0.00001301,0.00003277,0.00000123,0.00001824,-0.0
 0000501,0.00000130,0.00000091,-0.00000351,0.00000184,0.00000039,-0.000
 00036,0.00000022,-0.00000077,-0.00000039,0.00001668,0.00000641,-0.0000
 0319,0.00008871,-0.00006525,-0.00007692,-0.00027058,0.00008492,-0.0000
 4230,-0.00000966,-0.00001246,0.00000239,0.00000253,-0.00000061,-0.0000
 0023,0.00222296,-0.00074675,0.00064879,-0.00002449,0.00004713,0.000027
 20,0.00170093,-0.00131643,-0.00129282,0.00823448,0.00613196,0.02003230
 ,-0.00004640,0.00000555,0.00002252,0.00001292,-0.00000192,-0.00000078,
 0.00000441,0.00000095,-0.00000138,0.00000185,-0.00000252,0.00000019,-0
 .00000343,0.00000264,0.00000579,0.00165958,-0.00273869,0.00085903,-0.0
 0010496,-0.00003416,-0.00021183,0.00011778,0.00017128,0.00046642,-0.00
 004709,-0.00004370,0.00007732,-0.02464367,-0.05031851,-0.04815534,0.02
 536087,0.05611755,0.00002441,-0.00000375,0.00000607,0.00000554,-0.0000
 0185,-0.00000330,0.00000370,-0.00000555,0.00000109,-0.00002727,-0.0000
 0398,-0.00001004,0.00003407,-0.00001500,0.00000013,-0.00010874,0.00005
 176,0.00014624,0.00010180,-0.00004419,-0.00004641,0.00001025,0.0000264
 7,-0.00007783,0.00000686,-0.00002079,0.00001211,-0.00000498,-0.0000003
 2,0.00000740,-0.00000459,0.00000071,-0.00000115,0.00000163,0.00000504,
 0.00000110,-0.00001824,-0.00000109,0.00000430,-0.00001118,0.00001034,0
 .00004094,0.00005886,-0.00012012,-0.00013693,0.00000065,0.00000709,0.0
 0000853,0.00000201,-0.00000081,-0.00000543,-0.00109049,0.00072524,0.00
 177507,0.00000600,0.00000174,-0.00001011,0.00022633,-0.00011139,-0.001
 04681,-0.00385019,0.00281243,-0.00499053,0.00000540,-0.00000202,-0.000
 00797,-0.00000385,-0.00000038,0.00000374,-0.00000080,0.00000184,0.0000
 0259,-0.00000317,0.00000296,-0.00000182,-0.00000026,-0.00000060,-0.000
 00363,-0.00076913,0.00033770,-0.00028164,0.00001602,0.00000732,0.00007
 272,-0.00000825,-0.00000102,0.00000325,0.00001864,0.00000791,-0.000024
 95,-0.10197777,-0.04435825,-0.23602565,0.11584253,0.05387077,0.2662740
 0,-0.00001528,0.00000067,-0.00000672,0.00000557,0.00000670,0.00001411,
 0.00000551,-0.00001503,-0.00001855,0.00001107,0.00000462,0.00001577,-0
 .00000805,0.00002126,-0.00002146,0.00004224,-0.00008399,0.00005491,-0.
 00003852,0.00003509,-0.00007328,-0.00001514,0.00002087,-0.00003207,0.0
 0002061,-0.00001067,0.00000393,0.00000531,0.00000083,-0.00000552,-0.00
 000342,0.00000326,0.00000065,-0.00000514,0.00000270,-0.00000071,0.0000
 0363,0.00000414,-0.00000253,-0.00000549,0.00002178,-0.00004161,-0.0000
 6166,0.00009499,0.00013843,-0.00000191,-0.00000334,-0.00000139,-0.0000
 0051,0.00000350,0.00000578,-0.00044271,0.00100567,0.00002165,-0.000002
 32,0.00001387,0.00002022,0.00009901,-0.00005260,-0.00031180,-0.0037143
 6,0.00603958,0.00492288,-0.00003674,0.00001480,0.00001706,0.00000197,-
 0.00000089,-0.00000036,-0.00000013,0.00000068,-0.00000003,-0.00000033,
 -0.00000017,-0.00000071,-0.00000274,0.00000175,0.00000199,-0.00144693,
 0.00121485,-0.00130487,-0.00020854,0.00043700,-0.00097284,0.00002541,-
 0.00002056,0.00007506,-0.00008763,0.00003452,-0.00001457,-0.15865504,0
 .05536791,0.11551371,0.00793295,-0.00101761,-0.00338276,0.17691704,0.0
 0011417,-0.00000128,0.00005001,0.00001129,-0.00004541,-0.00007858,-0.0
 0001246,0.00011003,0.00000975,-0.00008843,-0.00016701,0.00015363,0.000
 01700,0.00026125,-0.00015081,0.00020664,-0.00042923,-0.00011053,-0.000
 22522,0.00017485,0.00007278,-0.00004269,0.00004459,0.00001765,0.000036
 00,-0.00001164,0.00000104,0.00000867,0.00000117,-0.00000889,-0.0000053
 3,0.00000508,-0.00000037,-0.00000736,0.00000525,-0.00000199,-0.0000139
 3,-0.00000172,-0.00000616,-0.00006366,-0.00002316,0.00014129,0.0003098
 6,-0.00038702,-0.00054176,0.00000677,0.00001058,0.00000715,0.00000560,
 -0.00000928,-0.00001939,0.00165067,-0.00224578,0.00144257,-0.00000316,
 0.00001158,-0.00002637,-0.00016681,0.00034748,0.00023264,0.01382581,-0
 .00756127,-0.01292047,0.00001563,-0.00000941,-0.00001026,-0.00001710,-
 0.00000031,0.00000298,-0.00000837,0.00000057,0.00000237,-0.00000802,0.
 00000264,-0.00000150,-0.00000767,-0.00000437,-0.00000402,0.00206472,-0
 .00032960,0.00136480,0.00010476,-0.00013112,0.00070775,-0.00008211,-0.
 00003073,-0.00023766,-0.00000303,-0.00002513,-0.00001069,0.05381796,-0
 .06513066,-0.05265918,0.00466082,-0.00069482,-0.00936666,-0.06378672,0
 .07124036,-0.00006930,0.00000110,-0.00003025,-0.00000426,0.00002806,0.
 00004876,0.00000775,-0.00006653,-0.00001268,0.00004858,0.00009178,-0.0
 0007835,-0.00001366,-0.00012372,0.00007572,-0.00009844,0.00017552,0.00
 005450,0.00008354,-0.00005583,-0.00005901,0.00001784,-0.00001238,-0.00
 001035,-0.00000999,-0.00000245,0.00000053,-0.00000042,-0.00000182,-0.0
 0000028,0.00000173,-0.00000097,0.00000086,0.00000017,-0.00000152,0.000
 00059,0.00000873,0.00000271,0.00000249,0.00002985,0.00001291,-0.000081
 24,-0.00020189,0.00023044,0.00035942,-0.00000451,-0.00000799,-0.000003
 84,-0.00000102,0.00000536,0.00001035,-0.00026354,0.00164940,-0.0016832
 5,0.00000720,-0.00000362,0.00001850,0.00025135,-0.00058043,0.00028398,
 -0.00593481,0.00232700,0.01055264,-0.00002025,0.00001026,0.00001045,0.
 00001078,-0.00000023,-0.00000191,0.00000469,-0.00000018,-0.00000153,0.
 00000468,-0.00000196,0.00000083,0.00000408,0.00000310,0.00000377,-0.00
 199960,0.00123133,-0.00024909,0.00050858,-0.00024331,-0.00059584,0.000
 01023,0.00001558,0.00011782,-0.00001270,0.00001805,-0.00001260,0.11729
 784,-0.05618199,-0.15350067,0.01396137,-0.01049407,-0.02665005,-0.1329
 2443,0.06055223,0.17464413,-0.00010418,-0.00000634,-0.00004129,-0.0000
 2596,0.00003620,0.00005094,0.00000059,-0.00008951,0.00000655,0.0000787
 1,0.00019151,-0.00019026,0.00002115,-0.00038656,0.00019109,-0.00042921
 ,0.00090509,0.00044485,0.00025407,-0.00053422,-0.00039052,0.00003557,-
 0.00005548,-0.00004994,-0.00010755,0.00001282,0.00002034,0.00023764,0.
 00009969,-0.00018756,0.00000241,-0.00000550,-0.00000078,0.00000976,-0.
 00000543,0.00000188,0.00001347,-0.00000791,0.00000957,0.00010660,-0.00
 009353,-0.00003758,-0.00027507,-0.00002124,-0.00010508,-0.00001078,-0.
 00000275,-0.00000356,0.00000233,-0.00000583,-0.00000179,0.00128989,0.0
 0005640,-0.00120769,-0.00000134,-0.00001425,-0.00000334,0.00014218,-0.
 00038050,0.00050663,0.00990680,0.00923496,-0.00127376,0.00002079,-0.00
 000484,0.00000598,0.00001547,0.00000198,-0.00000121,0.00001228,0.00000
 014,-0.00000317,0.00000878,-0.00000392,0.00000272,0.00000931,0.0000037
 6,0.00000217,0.00073407,0.00039574,-0.00000347,-0.00004441,-0.00001816
 ,0.00002640,-0.00006796,-0.00002159,-0.00007571,-0.00006567,-0.0002257
 4,0.00029631,-0.16574871,-0.12538231,0.02429778,-0.01297442,-0.0131182
 4,-0.00510389,-0.02031709,-0.01231383,0.00930027,0.18727140,0.00007614
 ,0.00000237,0.00003170,0.00000951,-0.00003012,-0.00004720,-0.00001566,
 0.00005424,0.00000729,-0.00001220,-0.00006517,0.00006560,0.00005021,0.
 00003746,-0.00005713,0.00005053,-0.00001614,0.00001951,0.00014675,-0.0
 0006867,0.00000881,-0.00000331,-0.00000862,-0.00000339,-0.00004748,0.0
 0002994,0.00000450,0.00018697,0.00002724,-0.00012988,-0.00000100,-0.00
 000100,-0.00000187,0.00000517,-0.00000102,0.00000043,-0.00000860,-0.00
 000211,-0.00000134,-0.00010917,0.00008294,-0.00001004,0.00012374,0.000
 15669,0.00018047,0.00001126,-0.00000365,0.00000175,-0.00000300,0.00000
 705,0.00000692,-0.00075955,-0.00093980,0.00151713,-0.00001486,0.000011
 79,-0.00000190,-0.00022121,0.00031859,-0.00086532,-0.00682127,-0.02048
 998,0.00569500,0.00000551,-0.00000330,-0.00000562,-0.00000925,0.000000
 99,0.00000156,-0.00000563,0.00000024,0.00000219,-0.00000381,0.00000266
 ,-0.00000141,-0.00000477,-0.00000197,-0.00000267,-0.00041603,-0.000307
 42,0.00077078,-0.00001493,-0.00003889,0.00003414,0.00002966,0.00001109
 ,-0.00000289,0.00004835,-0.00005628,-0.00008968,-0.12329341,-0.1610732
 1,0.02254304,-0.01138039,-0.00658606,-0.00381133,0.00064103,0.00502410
 ,0.00142366,0.14175960,0.18392765,-0.00003881,-0.00000041,-0.00001406,
 -0.00000024,0.00001067,0.00001820,0.00000272,-0.00001274,-0.00001502,0
 .00001419,0.00001804,0.00001190,-0.00000249,-0.00002734,-0.00001932,-0
 .00000977,0.00002226,0.00025556,0.00000645,-0.00005717,-0.00020096,-0.
 00002392,0.00003499,-0.00012069,0.00011279,-0.00001945,0.00000129,-0.0
 0022906,-0.00008583,0.00012860,-0.00001140,0.00000639,0.00000228,-0.00
 000951,0.00000480,-0.00000326,0.00001388,0.00000244,0.00000041,0.00005
 170,-0.00004313,-0.00001949,-0.00010681,-0.00000436,-0.00014475,-0.000
 00762,-0.00000245,0.00000021,0.00000074,-0.00000253,-0.00000119,0.0004
 1553,-0.00043233,0.00062906,-0.00000407,0.00001034,0.00000715,0.000155
 53,0.00028747,-0.00022665,0.00347108,0.00960277,0.00144092,-0.00002169
 ,0.00001395,0.00001575,0.00000576,-0.00000170,-0.00000029,0.00000218,0
 .00000008,-0.00000177,0.00000191,-0.00000228,0.00000040,0.,0.00000212,
 0.00000365,0.00014133,0.00053140,-0.00037610,0.00004925,0.00004022,-0.
 00008816,-0.00002349,-0.00004075,0.00000382,-0.00008987,-0.00015837,0.
 00010897,0.02353748,0.02186732,-0.04492553,-0.01923226,-0.01567948,0.0
 0096631,0.01831080,0.01139731,-0.00321350,-0.02648214,-0.02728226,0.04
 577768\\0.00000274,0.00000057,-0.00000103,0.00000016,0.00000107,0.0000
 0319,0.00000145,-0.00000399,-0.00000138,-0.00000546,0.00000250,-0.0000
 0207,0.00000739,0.00000248,-0.00000055,0.00000146,-0.00000123,-0.00000
 049,0.00000072,0.00000085,0.00000063,-0.00000024,0.00000056,0.00000106
 ,-0.00000020,-0.00000008,-0.00000075,0.00000008,-0.00000010,-0.0000003
 4,-0.00000019,0.,-0.00000008,0.00000003,0.00000057,-0.00000033,-0.0000
 0199,-0.00000129,-0.00000058,-0.00000303,-0.00000498,0.00000015,-0.000
 00054,0.00000068,0.00000415,0.00000142,0.00000008,-0.00000004,-0.00000
 020,0.00000203,-0.00000097,-0.00000303,0.00000087,0.00000046,-0.000000
 18,-0.00000075,0.00000054,-0.00000054,-0.00000025,-0.00000051,0.000001
 85,0.00000045,-0.00000183,0.00000013,-0.00000010,-0.00000034,0.0000010
 7,0.00000127,0.00000130,-0.00000156,0.00000036,-0.00000071,0.00000118,
 -0.00000017,-0.00000050,0.00000024,-0.00000022,-0.00000024,-0.00000149
 ,-0.00000109,0.00000031,0.00000002,0.00000060,0.00000013,-0.00000069,0
 .00000013,0.00000016,0.00000016,-0.00000057,0.00000013,-0.00000023,0.0
 0000023,0.00000034,-0.00000011,-0.00000004,0.00000003,-0.00000020,0.00
 000002,0.00000021,-0.00000023,-0.00000047,-0.00000004\\\@


 I LOVE MANKIND - IT'S PEOPLE I CAN'T STAND.
     -- LINUS OF PEANUTS
 Job cpu time:  0 days  0 hours  0 minutes 25.0 seconds.
 File lengths (MBytes):  RWF=     13 Int=      0 D2E=      0 Chk=      6 Scr=      1
 Normal termination of Gaussian 03 at Sun Dec 16 20:52:30 2012.
